VARIABLES = "X","Y","ND","D","U","V","W","TTR","TRT","TVB","TOV","MA","MC","MCT","MFP","SOF","FSP","ANG","P"
 ZONE I=        5715  F=POINT
   0.15087E-01   0.20000E-03   0.18859E+23   0.12541E-03   0.33167E+02   0.53301E+00  -0.59201E+00   0.37392E+01   0.00000E+00   0.00000E+00   0.37392E+01   0.29167E+00   0.44460E+02   0.17468E-06   0.24560E-04   0.95271E+00   0.33177E+02   0.92068E+00   0.97356E+00
   0.15087E-01   0.50667E-03   0.19321E+23   0.12849E-03   0.31054E+02  -0.26579E+00  -0.26904E+00   0.37889E+01   0.00000E+00   0.00000E+00   0.37889E+01   0.27123E+00   0.31845E+02   0.18334E-06   0.25949E-04   0.87801E+00   0.31056E+02  -0.49038E+00   0.10107E+01
   0.15385E-01   0.40833E-03   0.19197E+23   0.12766E-03   0.33434E+02  -0.39097E+00  -0.51891E+00   0.37430E+01   0.00000E+00   0.00000E+00   0.37430E+01   0.29385E+00   0.25344E+02   0.18282E-06   0.25718E-04   0.89057E+00   0.33441E+02  -0.66997E+00   0.99199E+00
   0.15335E-01   0.13333E-03   0.18602E+23   0.12370E-03   0.34065E+02   0.19573E+00  -0.26748E+00   0.37204E+01   0.00000E+00   0.00000E+00   0.37204E+01   0.30025E+00   0.46054E+02   0.16996E-06   0.23836E-04   0.10032E+01   0.34067E+02   0.32921E+00   0.95547E+00
   0.15136E-01   0.35238E-03   0.19163E+23   0.12744E-03   0.31919E+02   0.27292E+00  -0.22358E+00   0.37610E+01   0.00000E+00   0.00000E+00   0.37610E+01   0.27982E+00   0.24186E+02   0.18420E-06   0.25974E-04   0.88196E+00   0.31921E+02   0.48988E+00   0.99506E+00
   0.15236E-01   0.25333E-03   0.18930E+23   0.12588E-03   0.33649E+02   0.44472E+00   0.19179E+00   0.37691E+01   0.00000E+00   0.00000E+00   0.37691E+01   0.29468E+00   0.82914E+01   0.18448E-06   0.26041E-04   0.89279E+00   0.33653E+02   0.75720E+00   0.98501E+00
   0.15285E-01   0.50667E-03   0.19447E+23   0.12932E-03   0.32194E+02   0.43283E-01   0.21560E-01   0.37749E+01   0.00000E+00   0.00000E+00   0.37749E+01   0.28170E+00   0.25718E+02   0.18241E-06   0.25769E-04   0.89113E+00   0.32194E+02   0.77030E-01   0.10135E+01
   0.15385E-01   0.25333E-03   0.19002E+23   0.12636E-03   0.34164E+02   0.64027E-01   0.51921E+00   0.37421E+01   0.00000E+00   0.00000E+00   0.37421E+01   0.30027E+00   0.16653E+02   0.18370E-06   0.25838E-04   0.89230E+00   0.34168E+02   0.10738E+00   0.98168E+00
   0.15831E-01   0.37143E-03   0.19090E+23   0.12695E-03   0.35322E+02  -0.93875E+00  -0.24062E+00   0.37287E+01   0.00000E+00   0.00000E+00   0.37287E+01   0.31109E+00   0.25099E+02   0.18605E-06   0.26122E-04   0.88562E+00   0.35335E+02  -0.15224E+01   0.98272E+00
   0.15931E-01   0.15556E-03   0.18527E+23   0.12320E-03   0.34779E+02  -0.80297E-01   0.69410E-01   0.36886E+01   0.00000E+00   0.00000E+00   0.36886E+01   0.30785E+00   0.24123E+02   0.18717E-06   0.26138E-04   0.89668E+00   0.34779E+02  -0.13228E+00   0.94345E+00
   0.15633E-01   0.13333E-03   0.18446E+23   0.12266E-03   0.34409E+02  -0.14837E+00   0.29104E+00   0.37116E+01   0.00000E+00   0.00000E+00   0.37116E+01   0.30364E+00   0.31143E+02   0.17707E-06   0.24805E-04   0.95989E+00   0.34410E+02  -0.24706E+00   0.94520E+00
   0.15633E-01   0.50667E-03   0.19195E+23   0.12765E-03   0.33901E+02  -0.63157E+00  -0.12959E+00   0.37729E+01   0.00000E+00   0.00000E+00   0.37729E+01   0.29676E+00   0.42289E+02   0.18374E-06   0.25950E-04   0.88254E+00   0.33907E+02  -0.10673E+01   0.99986E+00
   0.15682E-01   0.66667E-04   0.18089E+23   0.12029E-03   0.34396E+02   0.31844E+00   0.86614E+00   0.37000E+01   0.00000E+00   0.00000E+00   0.37000E+01   0.30410E+00   0.14286E+02   0.15856E-06   0.22176E-04   0.11028E+01   0.34408E+02   0.53043E+00   0.92402E+00
   0.15633E-01   0.25333E-03   0.18689E+23   0.12428E-03   0.35083E+02  -0.21220E+00  -0.77757E-01   0.37404E+01   0.00000E+00   0.00000E+00   0.37404E+01   0.30839E+00   0.24570E+02   0.18724E-06   0.26330E-04   0.88484E+00   0.35084E+02  -0.34655E+00   0.96510E+00
   0.15583E-01   0.35238E-03   0.18839E+23   0.12528E-03   0.34601E+02  -0.42394E+00  -0.20960E+00   0.37426E+01   0.00000E+00   0.00000E+00   0.37426E+01   0.30408E+00   0.16565E+02   0.18645E-06   0.26227E-04   0.87636E+00   0.34604E+02  -0.70196E+00   0.97345E+00
   0.15881E-01   0.66667E-04   0.18186E+23   0.12094E-03   0.34760E+02  -0.37920E-01  -0.43364E-01   0.36738E+01   0.00000E+00   0.00000E+00   0.36738E+01   0.30830E+00   0.14399E+02   0.15872E-06   0.22120E-04   0.11047E+01   0.34760E+02  -0.62504E-01   0.92243E+00
   0.15980E-01   0.25333E-03   0.18762E+23   0.12477E-03   0.36443E+02  -0.10093E+01   0.52763E+00   0.36888E+01   0.00000E+00   0.00000E+00   0.36888E+01   0.32273E+00   0.16442E+02   0.18835E-06   0.26303E-04   0.88450E+00   0.36461E+02  -0.15864E+01   0.95549E+00
   0.15980E-01   0.40833E-03   0.19109E+23   0.12707E-03   0.37205E+02  -0.14440E+01   0.93041E-01   0.37208E+01   0.00000E+00   0.00000E+00   0.37208E+01   0.32815E+00   0.33647E+02   0.18554E-06   0.26023E-04   0.88712E+00   0.37234E+02  -0.22227E+01   0.98161E+00
   0.15732E-01   0.35238E-03   0.18985E+23   0.12625E-03   0.34530E+02   0.31735E+00   0.53559E+00   0.37424E+01   0.00000E+00   0.00000E+00   0.37424E+01   0.30349E+00   0.83477E+01   0.18532E-06   0.26067E-04   0.88857E+00   0.34535E+02   0.52656E+00   0.98093E+00
   0.16427E-01   0.28000E-03   0.18748E+23   0.12468E-03   0.39647E+02  -0.71935E+00   0.24310E+00   0.36514E+01   0.00000E+00   0.00000E+00   0.36514E+01   0.35278E+00   0.49005E+02   0.18864E-06   0.26210E-04   0.88888E+00   0.39654E+02  -0.10395E+01   0.94513E+00
   0.16328E-01   0.46667E-03   0.18939E+23   0.12595E-03   0.39918E+02  -0.10928E+01   0.41574E+00   0.37130E+01   0.00000E+00   0.00000E+00   0.37130E+01   0.35233E+00   0.50015E+02   0.18807E-06   0.26350E-04   0.87818E+00   0.39935E+02  -0.15681E+01   0.97087E+00
   0.16278E-01   0.15556E-03   0.18513E+23   0.12311E-03   0.38351E+02  -0.26943E+00  -0.89689E+00   0.36529E+01   0.00000E+00   0.00000E+00   0.36529E+01   0.34123E+00   0.16092E+02   0.18910E-06   0.26278E-04   0.89505E+00   0.38363E+02  -0.40252E+00   0.93363E+00
   0.16526E-01   0.40833E-03   0.18992E+23   0.12630E-03   0.40716E+02  -0.16456E+01  -0.64273E+00   0.36804E+01   0.00000E+00   0.00000E+00   0.36804E+01   0.36114E+00   0.16725E+02   0.18773E-06   0.26187E-04   0.88265E+00   0.40754E+02  -0.23144E+01   0.96500E+00
   0.16129E-01   0.56364E-03   0.19158E+23   0.12740E-03   0.38129E+02  -0.20740E+01  -0.65470E+00   0.37576E+01   0.00000E+00   0.00000E+00   0.37576E+01   0.33493E+00   0.42220E+02   0.18457E-06   0.26015E-04   0.88734E+00   0.38191E+02  -0.31135E+01   0.99390E+00
   0.16129E-01   0.15556E-03   0.18770E+23   0.12482E-03   0.36985E+02  -0.62481E+00  -0.31958E+00   0.36629E+01   0.00000E+00   0.00000E+00   0.36629E+01   0.32858E+00   0.81605E+01   0.18570E-06   0.25841E-04   0.90857E+00   0.36992E+02  -0.96784E+00   0.94921E+00
   0.16129E-01   0.66667E-04   0.18152E+23   0.12071E-03   0.36167E+02   0.54996E-01  -0.10251E+01   0.36351E+01   0.00000E+00   0.00000E+00   0.36351E+01   0.32262E+00   0.21530E+02   0.15981E-06   0.22154E-04   0.11079E+01   0.36182E+02   0.87123E-01   0.91096E+00
   0.16427E-01   0.66667E-04   0.17965E+23   0.11947E-03   0.38767E+02   0.21534E-01  -0.74450E+00   0.36353E+01   0.00000E+00   0.00000E+00   0.36353E+01   0.34572E+00   0.21239E+02   0.16116E-06   0.22342E-04   0.11016E+01   0.38774E+02   0.31826E-01   0.90166E+00
   0.16675E-01   0.40833E-03   0.18923E+23   0.12584E-03   0.41273E+02  -0.96872E+00  -0.36588E+00   0.36956E+01   0.00000E+00   0.00000E+00   0.36956E+01   0.36510E+00   0.24985E+02   0.18828E-06   0.26317E-04   0.88029E+00   0.41286E+02  -0.13445E+01   0.96547E+00
   0.16526E-01   0.55152E-03   0.18950E+23   0.12602E-03   0.40824E+02  -0.12184E+01   0.79295E-01   0.37313E+01   0.00000E+00   0.00000E+00   0.37313E+01   0.35944E+00   0.25086E+02   0.18807E-06   0.26414E-04   0.87614E+00   0.40842E+02  -0.17095E+01   0.97622E+00
   0.16179E-01   0.31111E-03   0.18697E+23   0.12433E-03   0.38384E+02  -0.12549E+01  -0.26086E-01   0.37260E+01   0.00000E+00   0.00000E+00   0.37260E+01   0.33823E+00   0.24607E+02   0.18946E-06   0.26590E-04   0.87522E+00   0.38404E+02  -0.18725E+01   0.96177E+00
   0.16923E-01   0.25333E-03   0.18497E+23   0.12300E-03   0.42583E+02  -0.21349E+00  -0.30334E+00   0.36629E+01   0.00000E+00   0.00000E+00   0.36629E+01   0.37827E+00   0.24325E+02   0.19134E-06   0.26627E-04   0.87975E+00   0.42585E+02  -0.28725E+00   0.93539E+00
   0.17171E-01   0.21667E-03   0.18207E+23   0.12108E-03   0.43604E+02  -0.56537E+00  -0.38779E+00   0.36520E+01   0.00000E+00   0.00000E+00   0.36520E+01   0.38794E+00   0.31683E+02   0.19324E-06   0.26851E-04   0.88302E+00   0.43609E+02  -0.74285E+00   0.91801E+00
   0.17171E-01   0.40833E-03   0.18620E+23   0.12382E-03   0.43855E+02  -0.61883E+00   0.14629E+00   0.36657E+01   0.00000E+00   0.00000E+00   0.36657E+01   0.38944E+00   0.32793E+02   0.19169E-06   0.26686E-04   0.87367E+00   0.43859E+02  -0.80844E+00   0.94231E+00
   0.16923E-01   0.45185E-03   0.18873E+23   0.12550E-03   0.42886E+02  -0.80131E+00  -0.33061E+00   0.36636E+01   0.00000E+00   0.00000E+00   0.36636E+01   0.38098E+00   0.83171E+01   0.18979E-06   0.26414E-04   0.88039E+00   0.42894E+02  -0.10704E+01   0.95458E+00
   0.17022E-01   0.55152E-03   0.18779E+23   0.12488E-03   0.42852E+02  -0.92149E+00   0.20656E+00   0.36958E+01   0.00000E+00   0.00000E+00   0.36958E+01   0.37903E+00   0.24852E+02   0.19018E-06   0.26583E-04   0.87372E+00   0.42862E+02  -0.12319E+01   0.95820E+00
   0.16923E-01   0.35238E-03   0.18587E+23   0.12360E-03   0.42685E+02  -0.63368E+00  -0.45288E-01   0.36751E+01   0.00000E+00   0.00000E+00   0.36751E+01   0.37857E+00   0.24517E+02   0.19159E-06   0.26706E-04   0.87362E+00   0.42690E+02  -0.85052E+00   0.94309E+00
   0.16824E-01   0.50667E-03   0.18860E+23   0.12542E-03   0.42191E+02  -0.12171E+01   0.33481E+00   0.37056E+01   0.00000E+00   0.00000E+00   0.37056E+01   0.37277E+00   0.16629E+02   0.18960E-06   0.26537E-04   0.87529E+00   0.42210E+02  -0.16524E+01   0.96488E+00
   0.16923E-01   0.13333E-03   0.18153E+23   0.12072E-03   0.42499E+02   0.39495E-01  -0.44778E+00   0.36605E+01   0.00000E+00   0.00000E+00   0.36605E+01   0.37764E+00   0.30687E+02   0.17968E-06   0.24996E-04   0.96301E+00   0.42501E+02   0.53247E-01   0.91740E+00
   0.16675E-01   0.26667E-03   0.18669E+23   0.12415E-03   0.41002E+02  -0.74619E+00  -0.19660E+00   0.36583E+01   0.00000E+00   0.00000E+00   0.36583E+01   0.36449E+00   0.54946E+02   0.18105E-06   0.25179E-04   0.94178E+00   0.41009E+02  -0.10426E+01   0.94292E+00
   0.17022E-01   0.45185E-03   0.18693E+23   0.12431E-03   0.43669E+02  -0.14935E+01  -0.38378E+00   0.36866E+01   0.00000E+00   0.00000E+00   0.36866E+01   0.38688E+00   0.82368E+01   0.19237E-06   0.26856E-04   0.86711E+00   0.43696E+02  -0.19588E+01   0.95143E+00
   0.17221E-01   0.66667E-04   0.17544E+23   0.11667E-03   0.43064E+02  -0.73815E-01   0.42913E-01   0.36039E+01   0.00000E+00   0.00000E+00   0.36039E+01   0.38564E+00   0.20768E+02   0.16548E-06   0.22841E-04   0.10860E+01   0.43064E+02  -0.98209E-01   0.87289E+00
   0.16973E-01   0.66667E-04   0.17628E+23   0.11722E-03   0.42832E+02   0.98471E-02   0.83382E-01   0.36448E+01   0.00000E+00   0.00000E+00   0.36448E+01   0.38141E+00   0.13912E+02   0.16636E-06   0.23093E-04   0.10801E+01   0.42832E+02   0.13172E-01   0.88702E+00
   0.17618E-01   0.35238E-03   0.18102E+23   0.12038E-03   0.46463E+02  -0.81917E+00  -0.25557E+00   0.36712E+01   0.00000E+00   0.00000E+00   0.36712E+01   0.41231E+00   0.23879E+02   0.19727E-06   0.27482E-04   0.85869E+00   0.46471E+02  -0.10101E+01   0.91750E+00
   0.17618E-01   0.13333E-03   0.17736E+23   0.11794E-03   0.46668E+02  -0.27951E+00   0.73554E+00   0.36379E+01   0.00000E+00   0.00000E+00   0.36379E+01   0.41602E+00   0.29977E+02   0.18820E-06   0.26099E-04   0.92467E+00   0.46675E+02  -0.34315E+00   0.89079E+00
   0.17370E-01   0.40833E-03   0.18581E+23   0.12356E-03   0.44539E+02  -0.83474E+00  -0.29016E+00   0.36598E+01   0.00000E+00   0.00000E+00   0.36598E+01   0.39586E+00   0.24511E+02   0.19247E-06   0.26773E-04   0.87188E+00   0.44547E+02  -0.10737E+01   0.93886E+00
   0.17370E-01   0.15556E-03   0.17804E+23   0.11839E-03   0.45155E+02  -0.41418E+00  -0.57052E-01   0.36509E+01   0.00000E+00   0.00000E+00   0.36509E+01   0.40177E+00   0.15470E+02   0.19540E-06   0.27147E-04   0.88045E+00   0.45157E+02  -0.52553E+00   0.89738E+00
   0.17270E-01   0.50667E-03   0.18714E+23   0.12445E-03   0.43903E+02  -0.95812E+00  -0.40323E+00   0.36854E+01   0.00000E+00   0.00000E+00   0.36854E+01   0.38889E+00   0.24761E+02   0.19077E-06   0.26629E-04   0.87461E+00   0.43915E+02  -0.12502E+01   0.95218E+00
   0.17618E-01   0.50667E-03   0.18334E+23   0.12192E-03   0.46042E+02  -0.10281E+01  -0.37567E+00   0.36829E+01   0.00000E+00   0.00000E+00   0.36829E+01   0.40798E+00   0.32287E+02   0.19517E-06   0.27233E-04   0.86222E+00   0.46055E+02  -0.12792E+01   0.93218E+00
   0.17618E-01   0.25333E-03   0.17998E+23   0.11968E-03   0.46164E+02  -0.75672E+00   0.10125E+00   0.36466E+01   0.00000E+00   0.00000E+00   0.36466E+01   0.41103E+00   0.23652E+02   0.19825E-06   0.27526E-04   0.86172E+00   0.46170E+02  -0.93911E+00   0.90608E+00
   0.17370E-01   0.25333E-03   0.18100E+23   0.12036E-03   0.45684E+02  -0.64359E+00   0.58248E+00   0.36490E+01   0.00000E+00   0.00000E+00   0.36490E+01   0.40664E+00   0.15849E+02   0.19562E-06   0.27171E-04   0.86789E+00   0.45692E+02  -0.80713E+00   0.91183E+00
   0.17816E-01   0.50667E-03   0.18255E+23   0.12139E-03   0.46770E+02  -0.12666E+01  -0.61783E+00   0.36765E+01   0.00000E+00   0.00000E+00   0.36765E+01   0.41486E+00   0.32196E+02   0.19588E-06   0.27309E-04   0.86083E+00   0.46791E+02  -0.15512E+01   0.92657E+00
   0.17519E-01   0.66667E-04   0.17272E+23   0.11486E-03   0.45843E+02  -0.15909E+00   0.54279E+00   0.36469E+01   0.00000E+00   0.00000E+00   0.36469E+01   0.40813E+00   0.20440E+02   0.16788E-06   0.23310E-04   0.10710E+01   0.45847E+02  -0.19883E+00   0.86964E+00
   0.17469E-01   0.55152E-03   0.18490E+23   0.12296E-03   0.44691E+02  -0.10736E+01  -0.56295E+00   0.37121E+01   0.00000E+00   0.00000E+00   0.37121E+01   0.39448E+00   0.16316E+02   0.19325E-06   0.27072E-04   0.86437E+00   0.44708E+02  -0.13761E+01   0.94762E+00
   0.18213E-01   0.31111E-03   0.17871E+23   0.11884E-03   0.49084E+02  -0.20958E+00  -0.75231E+00   0.36504E+01   0.00000E+00   0.00000E+00   0.36504E+01   0.43679E+00   0.31383E+02   0.19913E-06   0.27663E-04   0.85719E+00   0.49090E+02  -0.24464E+00   0.90064E+00
   0.18015E-01   0.50667E-03   0.18258E+23   0.12141E-03   0.47341E+02  -0.71059E+00   0.11715E+00   0.36668E+01   0.00000E+00   0.00000E+00   0.36668E+01   0.42033E+00   0.32179E+02   0.19670E-06   0.27387E-04   0.85803E+00   0.47346E+02  -0.85995E+00   0.92428E+00
   0.18114E-01   0.21667E-03   0.17564E+23   0.11680E-03   0.49793E+02  -0.42605E+00  -0.19677E+00   0.36533E+01   0.00000E+00   0.00000E+00   0.36533E+01   0.44290E+00   0.30548E+02   0.19947E-06   0.27721E-04   0.86595E+00   0.49796E+02  -0.49023E+00   0.88587E+00
   0.18362E-01   0.21667E-03   0.17629E+23   0.11724E-03   0.49290E+02   0.20522E+00  -0.21390E+00   0.36234E+01   0.00000E+00   0.00000E+00   0.36234E+01   0.44021E+00   0.22969E+02   0.19974E-06   0.27645E-04   0.86776E+00   0.49291E+02   0.23855E+00   0.88190E+00
   0.17916E-01   0.35238E-03   0.18033E+23   0.11992E-03   0.47657E+02  -0.62936E+00  -0.12638E-01   0.36586E+01   0.00000E+00   0.00000E+00   0.36586E+01   0.42361E+00   0.23781E+02   0.19847E-06   0.27602E-04   0.85710E+00   0.47662E+02  -0.75660E+00   0.91087E+00
   0.17965E-01   0.66667E-04   0.17043E+23   0.11333E-03   0.48510E+02  -0.31451E+00   0.87383E+00   0.36421E+01   0.00000E+00   0.00000E+00   0.36421E+01   0.43220E+00   0.26860E+02   0.16960E-06   0.23534E-04   0.10686E+01   0.48519E+02  -0.37147E+00   0.85697E+00
   0.18263E-01   0.45185E-03   0.18004E+23   0.11973E-03   0.48033E+02  -0.33134E+00  -0.53615E+00   0.36569E+01   0.00000E+00   0.00000E+00   0.36569E+01   0.42704E+00   0.15868E+02   0.19977E-06   0.27776E-04   0.85253E+00   0.48037E+02  -0.39523E+00   0.90900E+00
   0.18313E-01   0.66667E-04   0.17028E+23   0.11324E-03   0.50384E+02   0.37790E+00  -0.12253E+01   0.36126E+01   0.00000E+00   0.00000E+00   0.36126E+01   0.45080E+00   0.20203E+02   0.17018E-06   0.23518E-04   0.10678E+01   0.50401E+02   0.42973E+00   0.84929E+00
   0.18313E-01   0.55152E-03   0.18057E+23   0.12008E-03   0.48215E+02  -0.57275E+00  -0.24311E+00   0.36794E+01   0.00000E+00   0.00000E+00   0.36794E+01   0.42735E+00   0.23903E+02   0.19710E-06   0.27490E-04   0.85787E+00   0.48219E+02  -0.68060E+00   0.91723E+00
   0.17916E-01   0.21667E-03   0.17665E+23   0.11748E-03   0.48588E+02  -0.71659E+00   0.36041E+00   0.36627E+01   0.00000E+00   0.00000E+00   0.36627E+01   0.43166E+00   0.38501E+02   0.19948E-06   0.27759E-04   0.86117E+00   0.48595E+02  -0.84495E+00   0.89329E+00
   0.18759E-01   0.31111E-03   0.17465E+23   0.11614E-03   0.51097E+02   0.16572E+00  -0.66241E-01   0.36660E+01   0.00000E+00   0.00000E+00   0.36660E+01   0.45368E+00   0.30634E+02   0.20434E-06   0.28447E-04   0.84294E+00   0.51097E+02   0.18582E+00   0.88396E+00
   0.18610E-01   0.50667E-03   0.17936E+23   0.11927E-03   0.49455E+02  -0.38335E+00  -0.81213E+00   0.36696E+01   0.00000E+00   0.00000E+00   0.36696E+01   0.43896E+00   0.15803E+02   0.19992E-06   0.27845E-04   0.85091E+00   0.49463E+02  -0.44413E+00   0.90867E+00
   0.18859E-01   0.21667E-03   0.17246E+23   0.11469E-03   0.50211E+02  -0.11690E+00  -0.14538E+00   0.36502E+01   0.00000E+00   0.00000E+00   0.36502E+01   0.44678E+00   0.22518E+02   0.20266E-06   0.28153E-04   0.85950E+00   0.50211E+02  -0.13339E+00   0.86910E+00
   0.18610E-01   0.20000E-03   0.17252E+23   0.11472E-03   0.50020E+02  -0.13033E+00   0.63499E-01   0.36389E+01   0.00000E+00   0.00000E+00   0.36389E+01   0.44577E+00   0.36692E+02   0.19659E-06   0.27267E-04   0.89495E+00   0.50020E+02  -0.14929E+00   0.86669E+00
   0.18511E-01   0.31111E-03   0.17714E+23   0.11780E-03   0.49882E+02  -0.20661E-01  -0.77324E+00   0.36587E+01   0.00000E+00   0.00000E+00   0.36587E+01   0.44339E+00   0.38863E+02   0.20076E-06   0.27922E-04   0.85297E+00   0.49888E+02  -0.23732E-01   0.89475E+00
   0.18958E-01   0.66667E-04   0.16744E+23   0.11135E-03   0.49310E+02  -0.74729E-01  -0.71048E+00   0.36157E+01   0.00000E+00   0.00000E+00   0.36157E+01   0.44090E+00   0.13271E+02   0.17287E-06   0.23901E-04   0.10588E+01   0.49315E+02  -0.86831E-01   0.83583E+00
   0.19007E-01   0.50667E-03   0.17653E+23   0.11739E-03   0.50965E+02  -0.57074E+00  -0.84367E+00   0.36816E+01   0.00000E+00   0.00000E+00   0.36816E+01   0.45165E+00   0.38892E+02   0.20210E-06   0.28195E-04   0.84551E+00   0.50976E+02  -0.64160E+00   0.89724E+00
   0.18462E-01   0.50667E-03   0.17945E+23   0.11933E-03   0.49095E+02  -0.63137E+00  -0.54581E+00   0.36708E+01   0.00000E+00   0.00000E+00   0.36708E+01   0.43568E+00   0.23727E+02   0.19970E-06   0.27820E-04   0.85012E+00   0.49102E+02  -0.73679E+00   0.90944E+00
   0.18759E-01   0.50667E-03   0.17782E+23   0.11825E-03   0.50059E+02  -0.34461E+00  -0.55091E+00   0.36771E+01   0.00000E+00   0.00000E+00   0.36771E+01   0.44383E+00   0.31347E+02   0.20115E-06   0.28047E-04   0.84887E+00   0.50064E+02  -0.39441E+00   0.90274E+00
   0.18710E-01   0.66667E-04   0.16793E+23   0.11167E-03   0.50228E+02  -0.34340E+00  -0.63935E+00   0.36107E+01   0.00000E+00   0.00000E+00   0.36107E+01   0.44941E+00   0.19860E+02   0.17401E-06   0.24042E-04   0.10565E+01   0.50233E+02  -0.39172E+00   0.83713E+00
   0.18958E-01   0.35238E-03   0.17436E+23   0.11595E-03   0.51132E+02  -0.21426E+00  -0.88304E+00   0.36693E+01   0.00000E+00   0.00000E+00   0.36693E+01   0.45386E+00   0.15344E+02   0.20304E-06   0.28279E-04   0.84671E+00   0.51140E+02  -0.24009E+00   0.88328E+00
   0.19454E-01   0.35238E-03   0.17402E+23   0.11573E-03   0.52116E+02  -0.31172E+00  -0.17727E+01   0.36467E+01   0.00000E+00   0.00000E+00   0.36467E+01   0.46423E+00   0.15301E+02   0.20664E-06   0.28693E-04   0.83599E+00   0.52147E+02  -0.34270E+00   0.87615E+00
   0.19156E-01   0.40833E-03   0.17620E+23   0.11717E-03   0.51506E+02  -0.66209E+00  -0.82669E+00   0.36657E+01   0.00000E+00   0.00000E+00   0.36657E+01   0.45743E+00   0.23254E+02   0.20249E-06   0.28188E-04   0.84729E+00   0.51517E+02  -0.73647E+00   0.89172E+00
   0.19355E-01   0.13333E-03   0.16729E+23   0.11125E-03   0.52215E+02  -0.15576E+00  -0.11278E+01   0.36382E+01   0.00000E+00   0.00000E+00   0.36382E+01   0.46549E+00   0.27434E+02   0.19195E-06   0.26621E-04   0.93851E+00   0.52227E+02  -0.17092E+00   0.84029E+00
   0.19603E-01   0.13333E-03   0.16588E+23   0.11031E-03   0.53236E+02  -0.16192E-01  -0.34603E+00   0.36197E+01   0.00000E+00   0.00000E+00   0.36197E+01   0.47570E+00   0.40906E+02   0.19474E-06   0.26940E-04   0.93311E+00   0.53237E+02  -0.17426E-01   0.82896E+00
   0.19305E-01   0.50667E-03   0.17729E+23   0.11790E-03   0.50907E+02  -0.93837E-01  -0.97158E+00   0.36635E+01   0.00000E+00   0.00000E+00   0.36635E+01   0.45224E+00   0.31286E+02   0.20228E-06   0.28150E-04   0.84445E+00   0.50917E+02  -0.10561E+00   0.89671E+00
   0.19404E-01   0.25333E-03   0.17208E+23   0.11443E-03   0.52528E+02  -0.26087E+00  -0.10030E+01   0.36452E+01   0.00000E+00   0.00000E+00   0.36452E+01   0.46781E+00   0.22611E+02   0.20785E-06   0.28854E-04   0.83666E+00   0.52538E+02  -0.28454E+00   0.86600E+00
   0.19206E-01   0.20000E-03   0.17124E+23   0.11388E-03   0.50963E+02  -0.27218E+00  -0.15403E+01   0.36456E+01   0.00000E+00   0.00000E+00   0.36456E+01   0.45397E+00   0.21431E+02   0.19622E-06   0.27241E-04   0.90683E+00   0.50987E+02  -0.30600E+00   0.86189E+00
   0.19305E-01   0.35238E-03   0.17598E+23   0.11703E-03   0.51979E+02  -0.82222E+00  -0.21544E+01   0.36583E+01   0.00000E+00   0.00000E+00   0.36583E+01   0.46246E+00   0.77389E+01   0.20283E-06   0.28208E-04   0.84586E+00   0.52030E+02  -0.90625E+00   0.88881E+00
   0.19504E-01   0.50667E-03   0.17594E+23   0.11700E-03   0.51433E+02  -0.59767E+00  -0.76950E+00   0.36541E+01   0.00000E+00   0.00000E+00   0.36541E+01   0.45749E+00   0.31020E+02   0.20330E-06   0.28257E-04   0.84673E+00   0.51442E+02  -0.66577E+00   0.88760E+00
   0.19057E-01   0.20000E-03   0.17254E+23   0.11474E-03   0.50523E+02  -0.49564E+00  -0.10229E+01   0.36431E+01   0.00000E+00   0.00000E+00   0.36431E+01   0.45011E+00   0.36657E+02   0.19861E-06   0.27564E-04   0.88636E+00   0.50536E+02  -0.56206E+00   0.86780E+00
   0.20050E-01   0.40833E-03   0.17258E+23   0.11476E-03   0.54180E+02  -0.61505E+00  -0.79628E+00   0.36337E+01   0.00000E+00   0.00000E+00   0.36337E+01   0.48327E+00   0.30386E+02   0.20814E-06   0.28849E-04   0.83512E+00   0.54189E+02  -0.65040E+00   0.86578E+00
   0.19851E-01   0.20000E-03   0.16871E+23   0.11219E-03   0.53383E+02  -0.17426E+00  -0.88957E+00   0.35982E+01   0.00000E+00   0.00000E+00   0.35982E+01   0.47849E+00   0.42321E+02   0.20052E-06   0.27656E-04   0.89302E+00   0.53391E+02  -0.18703E+00   0.83811E+00
   0.20149E-01   0.20000E-03   0.16706E+23   0.11109E-03   0.55365E+02  -0.59387E+00  -0.64089E+00   0.36209E+01   0.00000E+00   0.00000E+00   0.36209E+01   0.49469E+00   0.34580E+02   0.19739E-06   0.27310E-04   0.91301E+00   0.55371E+02  -0.61456E+00   0.83513E+00
   0.19801E-01   0.45185E-03   0.17301E+23   0.11505E-03   0.53887E+02  -0.21640E+00  -0.24770E+00   0.36481E+01   0.00000E+00   0.00000E+00   0.36481E+01   0.47963E+00   0.22872E+02   0.20624E-06   0.28642E-04   0.83789E+00   0.53888E+02  -0.23009E+00   0.87138E+00
   0.20000E-01   0.20000E-03   0.16789E+23   0.11165E-03   0.53976E+02  -0.74077E+00  -0.49311E+00   0.36073E+01   0.00000E+00   0.00000E+00   0.36073E+01   0.48319E+00   0.21039E+02   0.19355E-06   0.26729E-04   0.93941E+00   0.53983E+02  -0.78629E+00   0.83615E+00
   0.19801E-01   0.60556E-03   0.17444E+23   0.11600E-03   0.52587E+02  -0.70932E+00  -0.13739E+01   0.36761E+01   0.00000E+00   0.00000E+00   0.36761E+01   0.46647E+00   0.15391E+02   0.20499E-06   0.28578E-04   0.84055E+00   0.52610E+02  -0.77279E+00   0.88531E+00
   0.19851E-01   0.35238E-03   0.17161E+23   0.11412E-03   0.53501E+02  -0.11635E+00  -0.48925E+00   0.36371E+01   0.00000E+00   0.00000E+00   0.36371E+01   0.47694E+00   0.15095E+02   0.20889E-06   0.28966E-04   0.83434E+00   0.53504E+02  -0.12461E+00   0.86170E+00
   0.19653E-01   0.31111E-03   0.17245E+23   0.11468E-03   0.53158E+02  -0.24741E+00  -0.12139E+01   0.36089E+01   0.00000E+00   0.00000E+00   0.36089E+01   0.47583E+00   0.30231E+02   0.20813E-06   0.28749E-04   0.83957E+00   0.53172E+02  -0.26666E+00   0.85921E+00
   0.19653E-01   0.60556E-03   0.17410E+23   0.11577E-03   0.51978E+02  -0.86729E+00  -0.56538E+00   0.36922E+01   0.00000E+00   0.00000E+00   0.36922E+01   0.45996E+00   0.23039E+02   0.20529E-06   0.28681E-04   0.83710E+00   0.51988E+02  -0.95593E+00   0.88743E+00
   0.20199E-01   0.50667E-03   0.17194E+23   0.11434E-03   0.53792E+02   0.18537E+00  -0.46883E+00   0.36457E+01   0.00000E+00   0.00000E+00   0.36457E+01   0.47896E+00   0.37893E+02   0.20912E-06   0.29033E-04   0.83188E+00   0.53794E+02   0.19745E+00   0.86542E+00
   0.19950E-01   0.55152E-03   0.17311E+23   0.11512E-03   0.53903E+02  -0.58694E+00  -0.81618E+00   0.36573E+01   0.00000E+00   0.00000E+00   0.36573E+01   0.47925E+00   0.15279E+02   0.20659E-06   0.28727E-04   0.83725E+00   0.53912E+02  -0.62386E+00   0.87410E+00
   0.20496E-01   0.40833E-03   0.17021E+23   0.11319E-03   0.54712E+02  -0.28310E-01   0.43505E-01   0.36158E+01   0.00000E+00   0.00000E+00   0.36158E+01   0.48914E+00   0.37430E+02   0.21116E-06   0.29195E-04   0.83152E+00   0.54712E+02  -0.29647E-01   0.84969E+00
   0.20695E-01   0.13333E-03   0.16257E+23   0.10811E-03   0.57071E+02  -0.10745E+00  -0.52521E+00   0.35939E+01   0.00000E+00   0.00000E+00   0.35939E+01   0.51180E+00   0.13348E+02   0.19837E-06   0.27344E-04   0.92196E+00   0.57073E+02  -0.10787E+00   0.80663E+00
   0.20347E-01   0.13333E-03   0.16492E+23   0.10967E-03   0.56549E+02  -0.14114E+00   0.54435E+00   0.35812E+01   0.00000E+00   0.00000E+00   0.35812E+01   0.50803E+00   0.27150E+02   0.19498E-06   0.26828E-04   0.93500E+00   0.56552E+02  -0.14300E+00   0.81539E+00
   0.20744E-01   0.40833E-03   0.17015E+23   0.11315E-03   0.55016E+02   0.32334E+00   0.37130E+00   0.36056E+01   0.00000E+00   0.00000E+00   0.36056E+01   0.49257E+00   0.29973E+02   0.21111E-06   0.29147E-04   0.82852E+00   0.55018E+02   0.33674E+00   0.84699E+00
   0.20447E-01   0.25333E-03   0.16765E+23   0.11149E-03   0.56094E+02  -0.14908E+00  -0.28064E-02   0.35834E+01   0.00000E+00   0.00000E+00   0.35834E+01   0.50376E+00   0.14690E+02   0.21434E-06   0.29502E-04   0.82744E+00   0.56094E+02  -0.15227E+00   0.82941E+00
   0.20546E-01   0.13333E-03   0.16372E+23   0.10888E-03   0.57212E+02   0.47645E+00  -0.18016E+00   0.35801E+01   0.00000E+00   0.00000E+00   0.35801E+01   0.51405E+00   0.26981E+02   0.19630E-06   0.27006E-04   0.93347E+00   0.57214E+02   0.47714E+00   0.80922E+00
   0.20695E-01   0.25333E-03   0.16772E+23   0.11154E-03   0.56338E+02   0.46283E+00  -0.69256E+00   0.35793E+01   0.00000E+00   0.00000E+00   0.35793E+01   0.50629E+00   0.22034E+02   0.21334E-06   0.29347E-04   0.83053E+00   0.56344E+02   0.47069E+00   0.82882E+00
   0.20546E-01   0.55152E-03   0.17123E+23   0.11387E-03   0.53131E+02   0.18167E-01  -0.58747E+00   0.36448E+01   0.00000E+00   0.00000E+00   0.36448E+01   0.47313E+00   0.15111E+02   0.21012E-06   0.29168E-04   0.82749E+00   0.53134E+02   0.19592E-01   0.86163E+00
   0.20397E-01   0.50667E-03   0.17105E+23   0.11375E-03   0.53961E+02  -0.28667E+00  -0.79338E+00   0.36414E+01   0.00000E+00   0.00000E+00   0.36414E+01   0.48079E+00   0.15079E+02   0.20940E-06   0.29054E-04   0.83084E+00   0.53968E+02  -0.30438E+00   0.85991E+00
   0.20248E-01   0.31111E-03   0.16914E+23   0.11247E-03   0.55209E+02  -0.59329E-01  -0.47130E+00   0.36186E+01   0.00000E+00   0.00000E+00   0.36186E+01   0.49341E+00   0.29707E+02   0.21132E-06   0.29229E-04   0.82891E+00   0.55211E+02  -0.61572E-01   0.84497E+00
   0.21191E-01   0.35238E-03   0.16757E+23   0.11144E-03   0.56805E+02   0.17061E+00  -0.39217E+00   0.35773E+01   0.00000E+00   0.00000E+00   0.35773E+01   0.51059E+00   0.22113E+02   0.21554E-06   0.29641E-04   0.82228E+00   0.56806E+02   0.17208E+00   0.82760E+00
   0.20993E-01   0.15556E-03   0.16530E+23   0.10992E-03   0.56260E+02  -0.15378E+00  -0.11919E+01   0.35741E+01   0.00000E+00   0.00000E+00   0.35741E+01   0.50602E+00   0.71796E+01   0.21187E-06   0.29124E-04   0.84536E+00   0.56273E+02  -0.15661E+00   0.81566E+00
   0.21191E-01   0.20000E-03   0.16429E+23   0.10926E-03   0.56988E+02   0.10451E+00   0.10965E-01   0.35594E+01   0.00000E+00   0.00000E+00   0.35594E+01   0.51351E+00   0.41506E+02   0.20507E-06   0.28131E-04   0.89248E+00   0.56988E+02   0.10507E+00   0.80736E+00
   0.20943E-01   0.40833E-03   0.17073E+23   0.11353E-03   0.55088E+02   0.67248E-01  -0.22269E+00   0.35976E+01   0.00000E+00   0.00000E+00   0.35976E+01   0.49375E+00   0.30055E+02   0.21098E-06   0.29097E-04   0.83253E+00   0.55088E+02   0.69944E-01   0.84796E+00
   0.21390E-01   0.37143E-03   0.16656E+23   0.11076E-03   0.56964E+02  -0.13454E+00  -0.26928E+00   0.35990E+01   0.00000E+00   0.00000E+00   0.35990E+01   0.51047E+00   0.43918E+02   0.21591E-06   0.29783E-04   0.82000E+00   0.56965E+02  -0.13532E+00   0.82758E+00
   0.21092E-01   0.25333E-03   0.16728E+23   0.11124E-03   0.56810E+02  -0.32706E+00  -0.15922E+00   0.35698E+01   0.00000E+00   0.00000E+00   0.35698E+01   0.51117E+00   0.21982E+02   0.21472E-06   0.29498E-04   0.82904E+00   0.56811E+02  -0.32985E+00   0.82446E+00