VARIABLES = "X","Y","ND","D","U","V","W","TTR","TRT","TVB","TOV","MA","MC","MCT","MFP","SOF","FSP","ANG","P"
 ZONE I=        9577  F=POINT
   0.15087E-01   0.35238E-03   0.35291E+23   0.23469E-03   0.37807E+02   0.38187E+00   0.15575E+00   0.36817E+01   0.00000E+00   0.00000E+00   0.36817E+01   0.33499E+00   0.29016E+02   0.10166E-06   0.14183E-04   0.12149E+01   0.37810E+02   0.57869E+00   0.17938E+01
   0.15335E-01   0.25333E-03   0.34967E+23   0.23253E-03   0.40065E+02   0.92260E+00   0.16755E+00   0.36238E+01   0.00000E+00   0.00000E+00   0.36238E+01   0.35790E+00   0.15320E+02   0.10275E-06   0.14222E-04   0.12343E+01   0.40076E+02   0.13191E+01   0.17494E+01
   0.15335E-01   0.45185E-03   0.36232E+23   0.24094E-03   0.38293E+02  -0.74576E+00   0.12345E+00   0.36166E+01   0.00000E+00   0.00000E+00   0.36166E+01   0.34238E+00   0.15958E+02   0.99987E-07   0.13826E-04   0.12490E+01   0.38300E+02  -0.11157E+01   0.18091E+01
   0.15136E-01   0.15556E-03   0.34618E+23   0.23021E-03   0.40691E+02   0.41529E+00   0.40253E+00   0.36227E+01   0.00000E+00   0.00000E+00   0.36227E+01   0.36348E+00   0.43130E+02   0.10146E-06   0.14041E-04   0.12495E+01   0.40695E+02   0.58473E+00   0.17314E+01
   0.15236E-01   0.25333E-03   0.34868E+23   0.23187E-03   0.40228E+02   0.80050E+00   0.51455E+00   0.36436E+01   0.00000E+00   0.00000E+00   0.36436E+01   0.35837E+00   0.15280E+02   0.10210E-06   0.14171E-04   0.12413E+01   0.40239E+02   0.11400E+01   0.17540E+01
   0.15236E-01   0.35238E-03   0.35323E+23   0.23490E-03   0.38706E+02   0.40273E+00   0.11902E+01   0.36685E+01   0.00000E+00   0.00000E+00   0.36685E+01   0.34372E+00   0.15531E+02   0.10163E-06   0.14153E-04   0.12323E+01   0.38726E+02   0.59613E+00   0.17890E+01
   0.15335E-01   0.35238E-03   0.35496E+23   0.23605E-03   0.39109E+02  -0.54468E+00   0.92924E+00   0.36365E+01   0.00000E+00   0.00000E+00   0.36365E+01   0.34878E+00   0.15605E+02   0.10202E-06   0.14145E-04   0.12287E+01   0.39124E+02  -0.79792E+00   0.17821E+01
   0.15385E-01   0.15556E-03   0.34261E+23   0.22784E-03   0.40141E+02   0.56553E+00  -0.42194E+00   0.36174E+01   0.00000E+00   0.00000E+00   0.36174E+01   0.35885E+00   0.29731E+02   0.10233E-06   0.14151E-04   0.12523E+01   0.40147E+02   0.80717E+00   0.17111E+01
   0.15385E-01   0.55152E-03   0.36125E+23   0.24023E-03   0.38617E+02  -0.64682E+00  -0.20266E+00   0.36460E+01   0.00000E+00   0.00000E+00   0.36460E+01   0.34386E+00   0.31883E+02   0.99842E-07   0.13862E-04   0.12416E+01   0.38623E+02  -0.95960E+00   0.18184E+01
   0.15236E-01   0.66667E-04   0.33703E+23   0.22412E-03   0.42375E+02   0.49190E-01   0.10604E+00   0.36256E+01   0.00000E+00   0.00000E+00   0.36256E+01   0.37833E+00   0.13380E+02   0.86454E-07   0.11969E-04   0.15455E+01   0.42375E+02   0.66511E-01   0.16870E+01
   0.15236E-01   0.45185E-03   0.35691E+23   0.23735E-03   0.38637E+02   0.32686E+00   0.97903E+00   0.36432E+01   0.00000E+00   0.00000E+00   0.36432E+01   0.34425E+00   0.15725E+02   0.10105E-06   0.14024E-04   0.12358E+01   0.38651E+02   0.48470E+00   0.17952E+01
   0.15385E-01   0.66667E-04   0.33286E+23   0.22135E-03   0.39572E+02   0.40364E+00  -0.11284E-01   0.36330E+01   0.00000E+00   0.00000E+00   0.36330E+01   0.35297E+00   0.26308E+02   0.87646E-07   0.12147E-04   0.15322E+01   0.39575E+02   0.58440E+00   0.16695E+01
   0.15087E-01   0.66667E-04   0.33660E+23   0.22384E-03   0.41668E+02   0.72054E-01   0.42876E+00   0.36404E+01   0.00000E+00   0.00000E+00   0.36404E+01   0.37128E+00   0.24757E+02   0.86862E-07   0.12050E-04   0.15171E+01   0.41671E+02   0.99078E-01   0.16918E+01
   0.15186E-01   0.55152E-03   0.36047E+23   0.23971E-03   0.38136E+02  -0.35890E+00   0.22440E+00   0.36486E+01   0.00000E+00   0.00000E+00   0.36486E+01   0.33944E+00   0.31813E+02   0.99432E-07   0.13810E-04   0.12418E+01   0.38139E+02  -0.53920E+00   0.18157E+01
   0.15087E-01   0.50667E-03   0.36018E+23   0.23952E-03   0.35862E+02  -0.95151E-01  -0.58377E+00   0.36810E+01   0.00000E+00   0.00000E+00   0.36810E+01   0.31781E+00   0.43462E+02   0.10031E-06   0.13993E-04   0.12248E+01   0.35867E+02  -0.15202E+00   0.18305E+01
   0.15087E-01   0.25333E-03   0.34943E+23   0.23237E-03   0.38705E+02   0.14745E+00   0.90678E-01   0.36509E+01   0.00000E+00   0.00000E+00   0.36509E+01   0.34437E+00   0.28649E+02   0.10222E-06   0.14202E-04   0.12217E+01   0.38705E+02   0.21828E+00   0.17612E+01
   0.15782E-01   0.35238E-03   0.35156E+23   0.23379E-03   0.40529E+02  -0.28064E+00   0.14054E+00   0.36408E+01   0.00000E+00   0.00000E+00   0.36408E+01   0.36111E+00   0.30921E+02   0.10226E-06   0.14187E-04   0.12294E+01   0.40530E+02  -0.39674E+00   0.17671E+01
   0.15980E-01   0.15556E-03   0.34077E+23   0.22661E-03   0.41206E+02  -0.45860E+00  -0.62037E+00   0.36177E+01   0.00000E+00   0.00000E+00   0.36177E+01   0.36836E+00   0.29577E+02   0.10356E-06   0.14322E-04   0.12462E+01   0.41213E+02  -0.63764E+00   0.17020E+01
   0.15633E-01   0.35238E-03   0.35575E+23   0.23657E-03   0.39923E+02  -0.61007E+00   0.32096E+00   0.36121E+01   0.00000E+00   0.00000E+00   0.36121E+01   0.35716E+00   0.15645E+02   0.10152E-06   0.14029E-04   0.12397E+01   0.39929E+02  -0.87547E+00   0.17741E+01
   0.15782E-01   0.15556E-03   0.34678E+23   0.23061E-03   0.39358E+02  -0.31551E+00  -0.93114E+00   0.36218E+01   0.00000E+00   0.00000E+00   0.36218E+01   0.35169E+00   0.30131E+02   0.10119E-06   0.14002E-04   0.12619E+01   0.39371E+02  -0.45929E+00   0.17340E+01
   0.15533E-01   0.45185E-03   0.35864E+23   0.23850E-03   0.39159E+02  -0.60534E+00  -0.45973E-01   0.36118E+01   0.00000E+00   0.00000E+00   0.36118E+01   0.35032E+00   0.47411E+02   0.10090E-06   0.13943E-04   0.12431E+01   0.39164E+02  -0.88564E+00   0.17884E+01
   0.15583E-01   0.55152E-03   0.35594E+23   0.23670E-03   0.40045E+02  -0.67921E+00   0.29710E+00   0.36507E+01   0.00000E+00   0.00000E+00   0.36507E+01   0.35636E+00   0.31406E+02   0.10088E-06   0.14014E-04   0.12385E+01   0.40052E+02  -0.97170E+00   0.17940E+01
   0.15484E-01   0.35238E-03   0.35282E+23   0.23462E-03   0.39818E+02  -0.18578E-02   0.80562E+00   0.36204E+01   0.00000E+00   0.00000E+00   0.36204E+01   0.35583E+00   0.31019E+02   0.10215E-06   0.14133E-04   0.12350E+01   0.39826E+02  -0.26733E-02   0.17635E+01
   0.15732E-01   0.66667E-04   0.33613E+23   0.22353E-03   0.40048E+02  -0.49938E+00  -0.94068E+00   0.35998E+01   0.00000E+00   0.00000E+00   0.35998E+01   0.35896E+00   0.39738E+02   0.87608E-07   0.12086E-04   0.15357E+01   0.40062E+02  -0.71442E+00   0.16705E+01
   0.15931E-01   0.25333E-03   0.34795E+23   0.23139E-03   0.40325E+02  -0.66711E+00   0.34749E+00   0.36440E+01   0.00000E+00   0.00000E+00   0.36440E+01   0.35918E+00   0.45728E+02   0.10262E-06   0.14243E-04   0.12330E+01   0.40332E+02  -0.94779E+00   0.17505E+01
   0.15484E-01   0.25333E-03   0.34667E+23   0.23054E-03   0.40614E+02   0.97535E-01   0.17578E-01   0.36310E+01   0.00000E+00   0.00000E+00   0.36310E+01   0.36234E+00   0.30387E+02   0.10326E-06   0.14307E-04   0.12299E+01   0.40614E+02   0.13760E+00   0.17378E+01
   0.16030E-01   0.45185E-03   0.35690E+23   0.23734E-03   0.41309E+02  -0.15210E+01  -0.19008E+00   0.36330E+01   0.00000E+00   0.00000E+00   0.36330E+01   0.36869E+00   0.15731E+02   0.10146E-06   0.14062E-04   0.12330E+01   0.41337E+02  -0.21087E+01   0.17901E+01
   0.16030E-01   0.35238E-03   0.35283E+23   0.23463E-03   0.42073E+02  -0.15404E+01  -0.13618E-01   0.36133E+01   0.00000E+00   0.00000E+00   0.36133E+01   0.37653E+00   0.15522E+02   0.10248E-06   0.14164E-04   0.12315E+01   0.42102E+02  -0.20968E+01   0.17601E+01
   0.15931E-01   0.45185E-03   0.35625E+23   0.23691E-03   0.41049E+02  -0.13415E+01  -0.31814E+00   0.36333E+01   0.00000E+00   0.00000E+00   0.36333E+01   0.36632E+00   0.15698E+02   0.10145E-06   0.14061E-04   0.12355E+01   0.41073E+02  -0.18717E+01   0.17870E+01
   0.15980E-01   0.66667E-04   0.33241E+23   0.22105E-03   0.42203E+02  -0.19493E+00  -0.71843E+00   0.35818E+01   0.00000E+00   0.00000E+00   0.35818E+01   0.37915E+00   0.26270E+02   0.88737E-07   0.12211E-04   0.15275E+01   0.42210E+02  -0.26463E+00   0.16438E+01
   0.15682E-01   0.25333E-03   0.34748E+23   0.23108E-03   0.40346E+02  -0.44774E-02   0.89728E+00   0.36459E+01   0.00000E+00   0.00000E+00   0.36459E+01   0.35930E+00   0.30455E+02   0.10285E-06   0.14279E-04   0.12322E+01   0.40356E+02  -0.63585E-02   0.17491E+01
   0.15931E-01   0.35238E-03   0.35127E+23   0.23360E-03   0.41253E+02  -0.11923E+01  -0.45298E+00   0.36284E+01   0.00000E+00   0.00000E+00   0.36284E+01   0.36835E+00   0.15442E+02   0.10253E-06   0.14200E-04   0.12305E+01   0.41273E+02  -0.16554E+01   0.17597E+01
   0.15583E-01   0.13333E-03   0.33974E+23   0.22592E-03   0.39950E+02   0.11969E+00  -0.33197E+00   0.36204E+01   0.00000E+00   0.00000E+00   0.36204E+01   0.35695E+00   0.42682E+02   0.96963E-07   0.13415E-04   0.13477E+01   0.39951E+02   0.17165E+00   0.16981E+01
   0.15782E-01   0.55152E-03   0.35675E+23   0.23724E-03   0.40190E+02  -0.13191E+01   0.28033E+00   0.36571E+01   0.00000E+00   0.00000E+00   0.36571E+01   0.35748E+00   0.31487E+02   0.10117E-06   0.14068E-04   0.12349E+01   0.40213E+02  -0.18799E+01   0.18012E+01
   0.16030E-01   0.55152E-03   0.35619E+23   0.23687E-03   0.42004E+02  -0.15596E+01  -0.65219E+00   0.36483E+01   0.00000E+00   0.00000E+00   0.36483E+01   0.37415E+00   0.47140E+02   0.10156E-06   0.14105E-04   0.12305E+01   0.42038E+02  -0.21264E+01   0.17941E+01
   0.15782E-01   0.45185E-03   0.35664E+23   0.23717E-03   0.40804E+02  -0.74575E+00  -0.79619E+00   0.36278E+01   0.00000E+00   0.00000E+00   0.36278E+01   0.36432E+00   0.31430E+02   0.10113E-06   0.14006E-04   0.12389E+01   0.40818E+02  -0.10471E+01   0.17863E+01
   0.16377E-01   0.25333E-03   0.34999E+23   0.23274E-03   0.43054E+02  -0.10060E+01   0.12040E+01   0.35567E+01   0.00000E+00   0.00000E+00   0.35567E+01   0.38836E+00   0.30664E+02   0.10397E-06   0.14257E-04   0.12279E+01   0.43083E+02  -0.13385E+01   0.17186E+01
   0.16476E-01   0.15556E-03   0.34330E+23   0.22830E-03   0.44037E+02   0.11285E+00   0.50934E+00   0.35515E+01   0.00000E+00   0.00000E+00   0.35515E+01   0.39728E+00   0.29801E+02   0.10329E-06   0.14153E-04   0.12528E+01   0.44040E+02   0.14682E+00   0.16833E+01
   0.16328E-01   0.45185E-03   0.35494E+23   0.23604E-03   0.43308E+02  -0.16176E+01  -0.10754E+01   0.36145E+01   0.00000E+00   0.00000E+00   0.36145E+01   0.38764E+00   0.15641E+02   0.10172E-06   0.14061E-04   0.12333E+01   0.43352E+02  -0.21391E+01   0.17713E+01
   0.16526E-01   0.35238E-03   0.35069E+23   0.23321E-03   0.44118E+02  -0.58767E+00   0.18331E+00   0.35690E+01   0.00000E+00   0.00000E+00   0.35690E+01   0.39704E+00   0.15425E+02   0.10360E-06   0.14231E-04   0.12276E+01   0.44122E+02  -0.76316E+00   0.17280E+01
   0.16526E-01   0.66667E-04   0.33345E+23   0.22174E-03   0.44263E+02   0.24561E+00   0.13369E+01   0.35450E+01   0.00000E+00   0.00000E+00   0.35450E+01   0.39984E+00   0.39344E+02   0.89197E-07   0.12211E-04   0.15279E+01   0.44284E+02   0.31792E+00   0.16320E+01
   0.16427E-01   0.55152E-03   0.35263E+23   0.23450E-03   0.44505E+02  -0.15651E+01  -0.23483E+00   0.36012E+01   0.00000E+00   0.00000E+00   0.36012E+01   0.39894E+00   0.15556E+02   0.10272E-06   0.14173E-04   0.12272E+01   0.44533E+02  -0.20141E+01   0.17532E+01
   0.16278E-01   0.15556E-03   0.34243E+23   0.22772E-03   0.42744E+02  -0.53800E+00   0.13050E+00   0.35509E+01   0.00000E+00   0.00000E+00   0.35509E+01   0.38565E+00   0.29720E+02   0.10360E-06   0.14194E-04   0.12542E+01   0.42748E+02  -0.72112E+00   0.16788E+01
   0.16675E-01   0.15556E-03   0.34218E+23   0.22755E-03   0.44341E+02   0.78075E-01   0.84229E+00   0.35570E+01   0.00000E+00   0.00000E+00   0.35570E+01   0.39976E+00   0.29731E+02   0.10326E-06   0.14160E-04   0.12527E+01   0.44349E+02   0.10089E+00   0.16804E+01
   0.16625E-01   0.35238E-03   0.34896E+23   0.23206E-03   0.44684E+02  -0.28930E+00  -0.24379E+00   0.36047E+01   0.00000E+00   0.00000E+00   0.36047E+01   0.40012E+00   0.15351E+02   0.10415E-06   0.14378E-04   0.12213E+01   0.44685E+02  -0.37095E+00   0.17366E+01
   0.16228E-01   0.66667E-04   0.33419E+23   0.22224E-03   0.43825E+02  -0.18982E+00   0.10962E+00   0.35531E+01   0.00000E+00   0.00000E+00   0.35531E+01   0.39526E+00   0.39417E+02   0.88922E-07   0.12187E-04   0.15281E+01   0.43826E+02  -0.24817E+00   0.16394E+01
   0.16179E-01   0.25333E-03   0.34901E+23   0.23209E-03   0.41896E+02  -0.86150E+00   0.31038E+00   0.36013E+01   0.00000E+00   0.00000E+00   0.36013E+01   0.37540E+00   0.30587E+02   0.10299E-06   0.14211E-04   0.12334E+01   0.41906E+02  -0.11780E+01   0.17353E+01
   0.16179E-01   0.35238E-03   0.35383E+23   0.23530E-03   0.42320E+02  -0.86584E+00   0.23458E-02   0.35843E+01   0.00000E+00   0.00000E+00   0.35843E+01   0.38009E+00   0.31113E+02   0.10263E-06   0.14127E-04   0.12301E+01   0.42328E+02  -0.11721E+01   0.17509E+01
   0.16377E-01   0.35238E-03   0.35174E+23   0.23391E-03   0.43297E+02  -0.85842E+00   0.99062E+00   0.35853E+01   0.00000E+00   0.00000E+00   0.35853E+01   0.38891E+00   0.30944E+02   0.10319E-06   0.14207E-04   0.12288E+01   0.43317E+02  -0.11358E+01   0.17411E+01
   0.16278E-01   0.55152E-03   0.35491E+23   0.23601E-03   0.43615E+02  -0.15721E+01  -0.13606E+01   0.36275E+01   0.00000E+00   0.00000E+00   0.36275E+01   0.38974E+00   0.31319E+02   0.10222E-06   0.14156E-04   0.12282E+01   0.43665E+02  -0.20643E+01   0.17774E+01
   0.16526E-01   0.45185E-03   0.35097E+23   0.23340E-03   0.45055E+02  -0.80826E+00  -0.53023E+00   0.36068E+01   0.00000E+00   0.00000E+00   0.36068E+01   0.40340E+00   0.15467E+02   0.10319E-06   0.14250E-04   0.12225E+01   0.45065E+02  -0.10277E+01   0.17477E+01
   0.16526E-01   0.25333E-03   0.34897E+23   0.23207E-03   0.43858E+02   0.33091E+00   0.63079E+00   0.35574E+01   0.00000E+00   0.00000E+00   0.35574E+01   0.39536E+00   0.15297E+02   0.10342E-06   0.14183E-04   0.12360E+01   0.43864E+02   0.43229E+00   0.17139E+01
   0.16129E-01   0.15556E-03   0.34411E+23   0.22883E-03   0.42064E+02  -0.64997E+00   0.45115E+00   0.35858E+01   0.00000E+00   0.00000E+00   0.35858E+01   0.37770E+00   0.14932E+02   0.10287E-06   0.14164E-04   0.12510E+01   0.42071E+02  -0.88527E+00   0.17035E+01
   0.16576E-01   0.55152E-03   0.35276E+23   0.23458E-03   0.45204E+02  -0.10429E+01  -0.52893E+00   0.35966E+01   0.00000E+00   0.00000E+00   0.35966E+01   0.40535E+00   0.31128E+02   0.10289E-06   0.14188E-04   0.12284E+01   0.45219E+02  -0.13217E+01   0.17516E+01
   0.16427E-01   0.45185E-03   0.35154E+23   0.23377E-03   0.44323E+02  -0.11792E+01  -0.97766E-01   0.36113E+01   0.00000E+00   0.00000E+00   0.36113E+01   0.39665E+00   0.15488E+02   0.10362E-06   0.14318E-04   0.12210E+01   0.44339E+02  -0.15240E+01   0.17527E+01
   0.16179E-01   0.45185E-03   0.35587E+23   0.23666E-03   0.42063E+02  -0.81310E+00   0.36862E-01   0.35981E+01   0.00000E+00   0.00000E+00   0.35981E+01   0.37705E+00   0.31366E+02   0.10184E-06   0.14046E-04   0.12328E+01   0.42071E+02  -0.11074E+01   0.17678E+01
   0.17072E-01   0.25333E-03   0.34309E+23   0.22816E-03   0.47477E+02  -0.48353E+00   0.84345E+00   0.35493E+01   0.00000E+00   0.00000E+00   0.35493E+01   0.42850E+00   0.30044E+02   0.10608E-06   0.14531E-04   0.12172E+01   0.47487E+02  -0.58351E+00   0.16812E+01
   0.17022E-01   0.40833E-03   0.34715E+23   0.23085E-03   0.47717E+02  -0.14108E+01   0.38351E+00   0.35498E+01   0.00000E+00   0.00000E+00   0.35498E+01   0.43075E+00   0.30536E+02   0.10543E-06   0.14443E-04   0.12190E+01   0.47740E+02  -0.16935E+01   0.17013E+01
   0.16824E-01   0.15556E-03   0.34113E+23   0.22685E-03   0.45342E+02  -0.46598E+00   0.36178E+00   0.35275E+01   0.00000E+00   0.00000E+00   0.35275E+01   0.41044E+00   0.14800E+02   0.10481E-06   0.14312E-04   0.12462E+01   0.45345E+02  -0.58881E+00   0.16613E+01
   0.16873E-01   0.35238E-03   0.34809E+23   0.23148E-03   0.45736E+02  -0.82281E+00   0.81610E+00   0.35751E+01   0.00000E+00   0.00000E+00   0.35751E+01   0.41134E+00   0.30615E+02   0.10413E-06   0.14316E-04   0.12250E+01   0.45750E+02  -0.10307E+01   0.17181E+01
   0.17270E-01   0.25333E-03   0.34000E+23   0.22610E-03   0.48590E+02  -0.70537E+00   0.81987E+00   0.35250E+01   0.00000E+00   0.00000E+00   0.35250E+01   0.44007E+00   0.29808E+02   0.10710E-06   0.14620E-04   0.12123E+01   0.48602E+02  -0.83170E+00   0.16546E+01
   0.16774E-01   0.66667E-04   0.33255E+23   0.22114E-03   0.44223E+02   0.28634E+00   0.94802E+00   0.35126E+01   0.00000E+00   0.00000E+00   0.35126E+01   0.40123E+00   0.26203E+02   0.89577E-07   0.12207E-04   0.15338E+01   0.44234E+02   0.37098E+00   0.16127E+01
   0.16973E-01   0.15556E-03   0.33946E+23   0.22574E-03   0.45508E+02  -0.31165E-01   0.18710E+01   0.35278E+01   0.00000E+00   0.00000E+00   0.35278E+01   0.41224E+00   0.29490E+02   0.10492E-06   0.14329E-04   0.12451E+01   0.45546E+02  -0.39238E-01   0.16534E+01
   0.17171E-01   0.15556E-03   0.33228E+23   0.22097E-03   0.47282E+02  -0.44807E+00   0.10381E+01   0.35599E+01   0.00000E+00   0.00000E+00   0.35599E+01   0.42614E+00   0.28834E+02   0.10654E-06   0.14616E-04   0.12353E+01   0.47295E+02  -0.54295E+00   0.16331E+01
   0.16824E-01   0.45185E-03   0.35316E+23   0.23485E-03   0.46793E+02  -0.10116E+01  -0.83356E+00   0.35684E+01   0.00000E+00   0.00000E+00   0.35684E+01   0.42128E+00   0.15559E+02   0.10323E-06   0.14179E-04   0.12255E+01   0.46812E+02  -0.12384E+01   0.17398E+01
   0.16675E-01   0.50667E-03   0.35203E+23   0.23410E-03   0.46014E+02  -0.10263E+01  -0.42431E+00   0.35892E+01   0.00000E+00   0.00000E+00   0.35892E+01   0.41302E+00   0.46545E+02   0.10331E-06   0.14231E-04   0.12274E+01   0.46027E+02  -0.12777E+01   0.17444E+01
   0.17171E-01   0.35238E-03   0.34376E+23   0.22860E-03   0.48318E+02  -0.10459E+01   0.61131E+00   0.35435E+01   0.00000E+00   0.00000E+00   0.35435E+01   0.43650E+00   0.30248E+02   0.10615E-06   0.14529E-04   0.12140E+01   0.48333E+02  -0.12400E+01   0.16818E+01
   0.17072E-01   0.55152E-03   0.34863E+23   0.23184E-03   0.48958E+02  -0.18226E+01   0.43240E+00   0.35742E+01   0.00000E+00   0.00000E+00   0.35742E+01   0.44056E+00   0.30767E+02   0.10476E-06   0.14401E-04   0.12148E+01   0.48994E+02  -0.21320E+01   0.17203E+01
   0.16873E-01   0.55152E-03   0.35326E+23   0.23491E-03   0.47215E+02  -0.10146E+01   0.61561E+00   0.35725E+01   0.00000E+00   0.00000E+00   0.35725E+01   0.42480E+00   0.31182E+02   0.10330E-06   0.14197E-04   0.12295E+01   0.47230E+02  -0.12311E+01   0.17423E+01
   0.16923E-01   0.45185E-03   0.35098E+23   0.23340E-03   0.47170E+02  -0.10190E+01   0.21663E-01   0.35505E+01   0.00000E+00   0.00000E+00   0.35505E+01   0.42567E+00   0.15461E+02   0.10381E-06   0.14223E-04   0.12331E+01   0.47181E+02  -0.12376E+01   0.17205E+01
   0.17270E-01   0.55152E-03   0.34787E+23   0.23133E-03   0.49630E+02  -0.11249E+01   0.67901E-01   0.35614E+01   0.00000E+00   0.00000E+00   0.35614E+01   0.44720E+00   0.30700E+02   0.10513E-06   0.14426E-04   0.12149E+01   0.49642E+02  -0.12985E+01   0.17104E+01
   0.17122E-01   0.45185E-03   0.34770E+23   0.23122E-03   0.48645E+02  -0.18858E+01   0.24385E+00   0.35694E+01   0.00000E+00   0.00000E+00   0.35694E+01   0.43805E+00   0.15328E+02   0.10494E-06   0.14416E-04   0.12156E+01   0.48682E+02  -0.22201E+01   0.17134E+01
   0.16725E-01   0.35238E-03   0.34948E+23   0.23240E-03   0.44903E+02   0.16978E+00  -0.46035E+00   0.35951E+01   0.00000E+00   0.00000E+00   0.35951E+01   0.40262E+00   0.15367E+02   0.10364E-06   0.14288E-04   0.12260E+01   0.44905E+02   0.21664E+00   0.17346E+01
   0.16725E-01   0.25333E-03   0.34654E+23   0.23045E-03   0.44805E+02  -0.43038E+00   0.91227E+00   0.35596E+01   0.00000E+00   0.00000E+00   0.35596E+01   0.40382E+00   0.45521E+02   0.10454E-06   0.14341E-04   0.12264E+01   0.44817E+02  -0.55034E+00   0.17030E+01
   0.17022E-01   0.66667E-04   0.32847E+23   0.21843E-03   0.45950E+02  -0.10241E+00   0.19410E+00   0.35252E+01   0.00000E+00   0.00000E+00   0.35252E+01   0.41606E+00   0.38980E+02   0.90208E-07   0.12315E-04   0.15217E+01   0.45951E+02  -0.12770E+00   0.15986E+01
   0.16923E-01   0.25333E-03   0.34390E+23   0.22870E-03   0.45736E+02  -0.46360E+00   0.89637E+00   0.35772E+01   0.00000E+00   0.00000E+00   0.35772E+01   0.41119E+00   0.15074E+02   0.10480E-06   0.14412E-04   0.12277E+01   0.45747E+02  -0.58076E+00   0.16984E+01
   0.17568E-01   0.35238E-03   0.33924E+23   0.22559E-03   0.51762E+02  -0.94590E+00  -0.17171E+00   0.35223E+01   0.00000E+00   0.00000E+00   0.35223E+01   0.46895E+00   0.29845E+02   0.10787E-06   0.14720E-04   0.12051E+01   0.51771E+02  -0.10469E+01   0.16497E+01
   0.17419E-01   0.50667E-03   0.34425E+23   0.22893E-03   0.50923E+02  -0.97748E+00   0.58556E+00   0.35514E+01   0.00000E+00   0.00000E+00   0.35514E+01   0.45948E+00   0.30344E+02   0.10621E-06   0.14553E-04   0.12095E+01   0.50935E+02  -0.10997E+01   0.16879E+01
   0.17419E-01   0.15556E-03   0.33597E+23   0.22342E-03   0.48628E+02  -0.89254E+00   0.31766E+00   0.34995E+01   0.00000E+00   0.00000E+00   0.34995E+01   0.44199E+00   0.14572E+02   0.10654E-06   0.14491E-04   0.12355E+01   0.48637E+02  -0.10515E+01   0.16232E+01
   0.17618E-01   0.15556E-03   0.33047E+23   0.21976E-03   0.50037E+02  -0.19367E+00   0.88564E-01   0.35064E+01   0.00000E+00   0.00000E+00   0.35064E+01   0.45427E+00   0.43055E+02   0.10790E-06   0.14691E-04   0.12300E+01   0.50037E+02  -0.22176E+00   0.15998E+01
   0.17767E-01   0.55152E-03   0.34232E+23   0.22764E-03   0.52485E+02  -0.69916E+00   0.21480E+00   0.35337E+01   0.00000E+00   0.00000E+00   0.35337E+01   0.47470E+00   0.30202E+02   0.10727E-06   0.14662E-04   0.12055E+01   0.52490E+02  -0.76320E+00   0.16701E+01
   0.17717E-01   0.66667E-04   0.32336E+23   0.21504E-03   0.48543E+02  -0.41899E+00   0.57069E-01   0.34702E+01   0.00000E+00   0.00000E+00   0.34702E+01   0.44302E+00   0.12714E+02   0.93084E-07   0.12608E-04   0.14981E+01   0.48545E+02  -0.49453E+00   0.15492E+01
   0.17370E-01   0.35238E-03   0.34254E+23   0.22779E-03   0.49950E+02  -0.57633E+00  -0.29870E+00   0.35403E+01   0.00000E+00   0.00000E+00   0.35403E+01   0.45134E+00   0.30134E+02   0.10704E-06   0.14645E-04   0.12051E+01   0.49954E+02  -0.66106E+00   0.16743E+01
   0.17270E-01   0.66667E-04   0.32241E+23   0.21440E-03   0.46928E+02  -0.25863E-01   0.12111E+01   0.35487E+01   0.00000E+00   0.00000E+00   0.35487E+01   0.42364E+00   0.25468E+02   0.92088E-07   0.12613E-04   0.14988E+01   0.46944E+02  -0.31576E-01   0.15796E+01
   0.17717E-01   0.31111E-03   0.33759E+23   0.22450E-03   0.52132E+02  -0.64561E+00  -0.10254E+00   0.35004E+01   0.00000E+00   0.00000E+00   0.35004E+01   0.47373E+00   0.29592E+02   0.10888E-06   0.14811E-04   0.12048E+01   0.52136E+02  -0.70952E+00   0.16314E+01
   0.17320E-01   0.15556E-03   0.33655E+23   0.22381E-03   0.47844E+02  -0.23875E+00   0.17445E+01   0.34947E+01   0.00000E+00   0.00000E+00   0.34947E+01   0.43538E+00   0.14602E+02   0.10579E-06   0.14380E-04   0.12475E+01   0.47876E+02  -0.28592E+00   0.16238E+01
   0.17866E-01   0.66667E-04   0.32208E+23   0.21418E-03   0.50485E+02  -0.46334E-01  -0.13562E+01   0.34670E+01   0.00000E+00   0.00000E+00   0.34670E+01   0.46110E+00   0.25441E+02   0.93021E-07   0.12594E-04   0.14962E+01   0.50503E+02  -0.52585E-01   0.15416E+01
   0.17816E-01   0.21667E-03   0.33375E+23   0.22195E-03   0.51049E+02  -0.94246E+00   0.17904E+00   0.34898E+01   0.00000E+00   0.00000E+00   0.34898E+01   0.46464E+00   0.29032E+02   0.10876E-06   0.14773E-04   0.12163E+01   0.51058E+02  -0.10577E+01   0.16080E+01
   0.17270E-01   0.45185E-03   0.34574E+23   0.22992E-03   0.50381E+02  -0.10752E+01   0.10088E+01   0.35353E+01   0.00000E+00   0.00000E+00   0.35353E+01   0.45571E+00   0.30455E+02   0.10593E-06   0.14482E-04   0.12142E+01   0.50402E+02  -0.12226E+01   0.16875E+01
   0.17568E-01   0.55152E-03   0.34312E+23   0.22818E-03   0.51291E+02  -0.10668E+01   0.47875E+00   0.35637E+01   0.00000E+00   0.00000E+00   0.35637E+01   0.46201E+00   0.30273E+02   0.10640E-06   0.14605E-04   0.12069E+01   0.51305E+02  -0.11915E+01   0.16882E+01
   0.17519E-01   0.25333E-03   0.33676E+23   0.22394E-03   0.50004E+02  -0.39623E+00   0.61567E+00   0.35148E+01   0.00000E+00   0.00000E+00   0.35148E+01   0.45347E+00   0.44267E+02   0.10785E-06   0.14702E-04   0.12111E+01   0.50009E+02  -0.45401E+00   0.16341E+01
   0.17568E-01   0.66667E-04   0.32242E+23   0.21441E-03   0.48120E+02  -0.74148E-01  -0.31023E+00   0.34682E+01   0.00000E+00   0.00000E+00   0.34682E+01   0.43927E+00   0.25472E+02   0.92582E-07   0.12536E-04   0.15100E+01   0.48121E+02  -0.88287E-01   0.15438E+01
   0.17717E-01   0.45185E-03   0.34050E+23   0.22643E-03   0.52979E+02  -0.57867E+00   0.46455E-01   0.35265E+01   0.00000E+00   0.00000E+00   0.35265E+01   0.47964E+00   0.15006E+02   0.10781E-06   0.14720E-04   0.12019E+01   0.52982E+02  -0.62579E+00   0.16578E+01
   0.17419E-01   0.66667E-04   0.32063E+23   0.21322E-03   0.48201E+02  -0.46014E-01   0.78534E+00   0.35038E+01   0.00000E+00   0.00000E+00   0.35038E+01   0.43782E+00   0.12570E+02   0.93612E-07   0.12741E-04   0.14918E+01   0.48208E+02  -0.54696E-01   0.15510E+01
   0.17816E-01   0.45185E-03   0.33906E+23   0.22547E-03   0.53275E+02  -0.63721E+00   0.36613E+00   0.35311E+01   0.00000E+00   0.00000E+00   0.35311E+01   0.48202E+00   0.14940E+02   0.10766E-06   0.14710E-04   0.12055E+01   0.53280E+02  -0.68527E+00   0.16529E+01
   0.17568E-01   0.45185E-03   0.34121E+23   0.22690E-03   0.52254E+02  -0.10956E+01  -0.18232E+00   0.35426E+01   0.00000E+00   0.00000E+00   0.35426E+01   0.47208E+00   0.30065E+02   0.10746E-06   0.14706E-04   0.12019E+01   0.52266E+02  -0.12011E+01   0.16688E+01
   0.18114E-01   0.25333E-03   0.33496E+23   0.22275E-03   0.52417E+02  -0.53493E+00  -0.10333E+00   0.35099E+01   0.00000E+00   0.00000E+00   0.35099E+01   0.47566E+00   0.14688E+02   0.10921E-06   0.14876E-04   0.12034E+01   0.52420E+02  -0.58470E+00   0.16231E+01
   0.18263E-01   0.46667E-03   0.34099E+23   0.22676E-03   0.53382E+02  -0.29868E+00   0.42595E+00   0.34940E+01   0.00000E+00   0.00000E+00   0.34940E+01   0.48551E+00   0.60062E+02   0.10809E-06   0.14691E-04   0.12048E+01   0.53384E+02  -0.32058E+00   0.16449E+01
   0.18362E-01   0.25333E-03   0.33450E+23   0.22244E-03   0.52515E+02   0.34701E-01  -0.76857E+00   0.34694E+01   0.00000E+00   0.00000E+00   0.34694E+01   0.47935E+00   0.29310E+02   0.10966E-06   0.14852E-04   0.12020E+01   0.52521E+02   0.37860E-01   0.16022E+01
   0.18015E-01   0.45185E-03   0.33700E+23   0.22411E-03   0.53317E+02  -0.10839E+01   0.19321E+01   0.35300E+01   0.00000E+00   0.00000E+00   0.35300E+01   0.48284E+00   0.14853E+02   0.10861E-06   0.14837E-04   0.11996E+01   0.53363E+02  -0.11646E+01   0.16424E+01
   0.18313E-01   0.66667E-04   0.32176E+23   0.21397E-03   0.52341E+02   0.72832E+00  -0.17993E+01   0.34493E+01   0.00000E+00   0.00000E+00   0.34493E+01   0.47943E+00   0.12678E+02   0.93969E-07   0.12690E-04   0.14949E+01   0.52377E+02   0.79721E+00   0.15323E+01
   0.18213E-01   0.25333E-03   0.33508E+23   0.22283E-03   0.52252E+02  -0.28657E+00  -0.12171E+01   0.34651E+01   0.00000E+00   0.00000E+00   0.34651E+01   0.47733E+00   0.14685E+02   0.10891E-06   0.14741E-04   0.12156E+01   0.52267E+02  -0.31422E+00   0.16030E+01
   0.18065E-01   0.55152E-03   0.34540E+23   0.22969E-03   0.53101E+02  -0.39872E+00   0.49213E+00   0.34758E+01   0.00000E+00   0.00000E+00   0.34758E+01   0.48424E+00   0.30478E+02   0.10713E-06   0.14522E-04   0.12097E+01   0.53105E+02  -0.43021E+00   0.16575E+01
   0.18065E-01   0.35238E-03   0.33637E+23   0.22368E-03   0.53137E+02  -0.58376E+00   0.33061E+00   0.35035E+01   0.00000E+00   0.00000E+00   0.35035E+01   0.48265E+00   0.29588E+02   0.10920E-06   0.14862E-04   0.11978E+01   0.53141E+02  -0.62943E+00   0.16270E+01
   0.17916E-01   0.55152E-03   0.34163E+23   0.22718E-03   0.53112E+02  -0.53135E+00   0.69787E-01   0.35028E+01   0.00000E+00   0.00000E+00   0.35028E+01   0.48246E+00   0.15071E+02   0.10767E-06   0.14652E-04   0.12072E+01   0.53115E+02  -0.57318E+00   0.16521E+01
   0.18213E-01   0.15556E-03   0.32903E+23   0.21880E-03   0.53537E+02  -0.17086E+00  -0.13137E+01   0.34648E+01   0.00000E+00   0.00000E+00   0.34648E+01   0.48910E+00   0.42872E+02   0.10893E-06   0.14742E-04   0.12263E+01   0.53553E+02  -0.18286E+00   0.15739E+01
   0.17866E-01   0.35238E-03   0.33788E+23   0.22469E-03   0.52808E+02  -0.89985E+00  -0.32572E+00   0.35066E+01   0.00000E+00   0.00000E+00   0.35066E+01   0.47948E+00   0.29721E+02   0.10862E-06   0.14790E-04   0.12028E+01   0.52816E+02  -0.97624E+00   0.16357E+01
   0.17916E-01   0.45185E-03   0.34034E+23   0.22632E-03   0.53030E+02  -0.35992E+00   0.72238E+00   0.35184E+01   0.00000E+00   0.00000E+00   0.35184E+01   0.48067E+00   0.14995E+02   0.10822E-06   0.14760E-04   0.11979E+01   0.53036E+02  -0.38887E+00   0.16532E+01
   0.17965E-01   0.25333E-03   0.33431E+23   0.22231E-03   0.52503E+02  -0.88825E+00  -0.10114E+00   0.34970E+01   0.00000E+00   0.00000E+00   0.34970E+01   0.47737E+00   0.29301E+02   0.10910E-06   0.14835E-04   0.12024E+01   0.52511E+02  -0.96925E+00   0.16140E+01
   0.18412E-01   0.50667E-03   0.34009E+23   0.22616E-03   0.54761E+02  -0.51927E+00   0.38358E+00   0.34867E+01   0.00000E+00   0.00000E+00   0.34867E+01   0.49859E+00   0.59991E+02   0.10858E-06   0.14742E-04   0.11996E+01   0.54765E+02  -0.54329E+00   0.16371E+01
   0.17965E-01   0.13333E-03   0.33076E+23   0.21995E-03   0.51847E+02  -0.32921E+00  -0.80565E+00   0.34600E+01   0.00000E+00   0.00000E+00   0.34600E+01   0.47392E+00   0.41581E+02   0.10311E-06   0.13946E-04   0.13134E+01   0.51855E+02  -0.36380E+00   0.15800E+01