VARIABLES = "X","Y","ND","D","U","V","W","TTR","TRT","TVB","TOV","MA","MC","MCT","MFP","SOF","FSP","ANG","P"
 ZONE I=        3295  F=POINT
   0.15335E-01   0.25333E-03   0.11963E+23   0.79554E-04   0.30061E+02  -0.24080E+00   0.11152E+01   0.38510E+01   0.00000E+00   0.00000E+00   0.38510E+01   0.26060E+00   0.15730E+02   0.28654E-06   0.40885E-04   0.69593E+00   0.30083E+02  -0.45895E+00   0.63603E+00
   0.15136E-01   0.20000E-03   0.11984E+23   0.79696E-04   0.28295E+02  -0.13054E+01   0.10932E+01   0.38220E+01   0.00000E+00   0.00000E+00   0.38220E+01   0.24649E+00   0.37926E+02   0.27133E-06   0.38569E-04   0.74862E+00   0.28347E+02  -0.26414E+01   0.63238E+00
   0.15335E-01   0.46667E-03   0.12231E+23   0.81335E-04   0.28827E+02  -0.15353E+01   0.17687E+01   0.38265E+01   0.00000E+00   0.00000E+00   0.38265E+01   0.25135E+00   0.37707E+02   0.28501E-06   0.40538E-04   0.69698E+00   0.28922E+02  -0.30487E+01   0.64614E+00
   0.15136E-01   0.40833E-03   0.12257E+23   0.81511E-04   0.25883E+02  -0.10842E+01  -0.87245E-01   0.38760E+01   0.00000E+00   0.00000E+00   0.38760E+01   0.22370E+00   0.25581E+02   0.28107E-06   0.40234E-04   0.69836E+00   0.25906E+02  -0.23987E+01   0.65591E+00
   0.15434E-01   0.13333E-03   0.11788E+23   0.78390E-04   0.30458E+02   0.11352E-01  -0.46814E+00   0.38161E+01   0.00000E+00   0.00000E+00   0.38161E+01   0.26509E+00   0.24167E+02   0.25159E-06   0.35736E-04   0.81922E+00   0.30462E+02   0.21355E-01   0.62106E+00
   0.15831E-01   0.35238E-03   0.12116E+23   0.80570E-04   0.33557E+02  -0.18257E+01   0.33920E+01   0.38134E+01   0.00000E+00   0.00000E+00   0.38134E+01   0.29405E+00   0.15995E+02   0.29213E-06   0.41479E-04   0.68362E+00   0.33777E+02  -0.31143E+01   0.63786E+00
   0.15881E-01   0.20000E-03   0.11630E+23   0.77339E-04   0.34766E+02  -0.59735E+00   0.22771E+01   0.38165E+01   0.00000E+00   0.00000E+00   0.38165E+01   0.30323E+00   0.48256E+02   0.26595E-06   0.37777E-04   0.78262E+00   0.34846E+02  -0.98435E+00   0.61279E+00
   0.15583E-01   0.56364E-03   0.12254E+23   0.81492E-04   0.29620E+02  -0.13714E+01   0.12524E+01   0.38446E+01   0.00000E+00   0.00000E+00   0.38446E+01   0.25732E+00   0.27038E+02   0.27648E-06   0.39417E-04   0.71829E+00   0.29678E+02  -0.26509E+01   0.65044E+00
   0.15633E-01   0.20000E-03   0.11981E+23   0.79675E-04   0.31109E+02  -0.10072E+01   0.65675E+00   0.38042E+01   0.00000E+00   0.00000E+00   0.38042E+01   0.27135E+00   0.30732E+02   0.27810E-06   0.39439E-04   0.72759E+00   0.31132E+02  -0.18543E+01   0.62926E+00
   0.15980E-01   0.43333E-03   0.12071E+23   0.80275E-04   0.33781E+02  -0.25977E+01   0.12257E+01   0.38194E+01   0.00000E+00   0.00000E+00   0.38194E+01   0.29491E+00   0.31833E+02   0.28862E-06   0.41013E-04   0.69708E+00   0.33903E+02  -0.43973E+01   0.63654E+00
   0.15583E-01   0.35238E-03   0.11895E+23   0.79099E-04   0.31358E+02  -0.11347E+01   0.23888E+01   0.38388E+01   0.00000E+00   0.00000E+00   0.38388E+01   0.27305E+00   0.10455E+02   0.29240E-06   0.41655E-04   0.68717E+00   0.31470E+02  -0.20723E+01   0.63039E+00
   0.15782E-01   0.50667E-03   0.12312E+23   0.81872E-04   0.30343E+02  -0.18528E+01   0.26356E+01   0.38043E+01   0.00000E+00   0.00000E+00   0.38043E+01   0.26596E+00   0.21719E+02   0.28574E-06   0.40523E-04   0.69744E+00   0.30514E+02  -0.34943E+01   0.64663E+00
   0.16328E-01   0.46667E-03   0.11936E+23   0.79372E-04   0.36874E+02  -0.17136E+01   0.26862E+00   0.37959E+01   0.00000E+00   0.00000E+00   0.37959E+01   0.32210E+00   0.26231E+02   0.29215E-06   0.41387E-04   0.68492E+00   0.36915E+02  -0.26607E+01   0.62550E+00
   0.16476E-01   0.13333E-03   0.11654E+23   0.77496E-04   0.39591E+02  -0.64571E+00  -0.53372E+00   0.36999E+01   0.00000E+00   0.00000E+00   0.36999E+01   0.34999E+00   0.29463E+02   0.27417E-06   0.38345E-04   0.75454E+00   0.39600E+02  -0.93438E+00   0.59528E+00
   0.16179E-01   0.20000E-03   0.11769E+23   0.78267E-04   0.37398E+02  -0.13919E+01  -0.23850E+00   0.37803E+01   0.00000E+00   0.00000E+00   0.37803E+01   0.32722E+00   0.25143E+02   0.28472E-06   0.40251E-04   0.72438E+00   0.37424E+02  -0.21315E+01   0.61425E+00
   0.16476E-01   0.46667E-03   0.11732E+23   0.78018E-04   0.38237E+02  -0.11015E+01   0.57313E+00   0.38171E+01   0.00000E+00   0.00000E+00   0.38171E+01   0.33289E+00   0.25827E+02   0.29748E-06   0.42259E-04   0.68028E+00   0.38257E+02  -0.16500E+01   0.61827E+00
   0.16328E-01   0.66667E-04   0.11356E+23   0.75519E-04   0.38275E+02  -0.61957E+00  -0.55194E+00   0.37580E+01   0.00000E+00   0.00000E+00   0.37580E+01   0.33573E+00   0.13506E+02   0.25336E-06   0.35712E-04   0.84919E+00   0.38284E+02  -0.92739E+00   0.58920E+00
   0.16179E-01   0.46667E-03   0.11849E+23   0.78794E-04   0.35735E+02  -0.23520E+01  -0.12883E+01   0.38171E+01   0.00000E+00   0.00000E+00   0.38171E+01   0.31181E+00   0.26089E+02   0.29609E-06   0.42062E-04   0.67953E+00   0.35835E+02  -0.37657E+01   0.62442E+00
   0.16675E-01   0.46667E-03   0.11569E+23   0.76931E-04   0.39563E+02   0.75982E+00   0.58286E+00   0.38342E+01   0.00000E+00   0.00000E+00   0.38342E+01   0.34359E+00   0.25486E+02   0.29628E-06   0.42183E-04   0.68753E+00   0.39575E+02   0.11002E+01   0.61237E+00
   0.16427E-01   0.25333E-03   0.11737E+23   0.78051E-04   0.39490E+02  -0.33012E+00  -0.29059E+00   0.37558E+01   0.00000E+00   0.00000E+00   0.37558E+01   0.34643E+00   0.15445E+02   0.29678E-06   0.41819E-04   0.68727E+00   0.39492E+02  -0.47896E+00   0.60859E+00
   0.17022E-01   0.28000E-03   0.11394E+23   0.75771E-04   0.40132E+02   0.10958E+01   0.91666E+00   0.38160E+01   0.00000E+00   0.00000E+00   0.38160E+01   0.34947E+00   0.24895E+02   0.29959E-06   0.42553E-04   0.68652E+00   0.40157E+02   0.15640E+01   0.60029E+00
   0.16923E-01   0.45185E-03   0.11608E+23   0.77194E-04   0.39624E+02   0.17350E+00  -0.76735E+00   0.37944E+01   0.00000E+00   0.00000E+00   0.37944E+01   0.34588E+00   0.15341E+02   0.29669E-06   0.42022E-04   0.67853E+00   0.39631E+02   0.25087E+00   0.60810E+00
   0.16725E-01   0.20000E-03   0.11531E+23   0.76678E-04   0.40644E+02   0.58966E+00   0.10471E+01   0.37650E+01   0.00000E+00   0.00000E+00   0.37650E+01   0.35625E+00   0.34312E+02   0.27931E-06   0.39407E-04   0.74417E+00   0.40662E+02   0.83117E+00   0.59936E+00
   0.17171E-01   0.46667E-03   0.11606E+23   0.77181E-04   0.41903E+02  -0.17346E+01   0.42594E+00   0.38547E+01   0.00000E+00   0.00000E+00   0.38547E+01   0.36316E+00   0.30642E+02   0.30058E-06   0.42909E-04   0.66912E+00   0.41941E+02  -0.23704E+01   0.61765E+00
   0.17122E-01   0.20000E-03   0.10994E+23   0.73112E-04   0.40451E+02   0.26222E+00   0.28592E+00   0.38128E+01   0.00000E+00   0.00000E+00   0.38128E+01   0.35219E+00   0.45575E+02   0.27491E-06   0.39030E-04   0.77799E+00   0.40452E+02   0.37141E+00   0.57874E+00
   0.16824E-01   0.35238E-03   0.11700E+23   0.77807E-04   0.38669E+02   0.11218E+01   0.79225E+00   0.37658E+01   0.00000E+00   0.00000E+00   0.37658E+01   0.33897E+00   0.15432E+02   0.30241E-06   0.42670E-04   0.68134E+00   0.38693E+02   0.16617E+01   0.60830E+00
   0.16923E-01   0.55152E-03   0.11700E+23   0.77807E-04   0.40837E+02  -0.41912E+00   0.11755E+00   0.38321E+01   0.00000E+00   0.00000E+00   0.38321E+01   0.35466E+00   0.15482E+02   0.29819E-06   0.42443E-04   0.68233E+00   0.40839E+02  -0.58802E+00   0.61901E+00
   0.17469E-01   0.20000E-03   0.11185E+23   0.74379E-04   0.42981E+02  -0.90526E-01  -0.35599E+00   0.37849E+01   0.00000E+00   0.00000E+00   0.37849E+01   0.37559E+00   0.37709E+02   0.29284E-06   0.41425E-04   0.72144E+00   0.42983E+02  -0.12067E+00   0.58446E+00
   0.17618E-01   0.50667E-03   0.11410E+23   0.75877E-04   0.45948E+02  -0.89157E-01   0.39959E+00   0.38084E+01   0.00000E+00   0.00000E+00   0.38084E+01   0.40028E+00   0.25152E+02   0.30291E-06   0.42982E-04   0.67510E+00   0.45950E+02  -0.11118E+00   0.59993E+00
   0.17370E-01   0.40833E-03   0.11459E+23   0.76200E-04   0.44184E+02  -0.20392E+01   0.10257E+01   0.38201E+01   0.00000E+00   0.00000E+00   0.38201E+01   0.38483E+00   0.20196E+02   0.30194E-06   0.42909E-04   0.67362E+00   0.44243E+02  -0.26425E+01   0.60433E+00
   0.17816E-01   0.31111E-03   0.11048E+23   0.73472E-04   0.45733E+02  -0.30042E+00  -0.45357E+00   0.37935E+01   0.00000E+00   0.00000E+00   0.37935E+01   0.39920E+00   0.19360E+02   0.31648E-06   0.44818E-04   0.65844E+00   0.45736E+02  -0.37637E+00   0.57865E+00
   0.17767E-01   0.13333E-03   0.10669E+23   0.70951E-04   0.44555E+02  -0.25627E+00  -0.16214E+00   0.37699E+01   0.00000E+00   0.00000E+00   0.37699E+01   0.39011E+00   0.35175E+02   0.28495E-06   0.40228E-04   0.76604E+00   0.44556E+02  -0.32955E+00   0.55532E+00
   0.17618E-01   0.35238E-03   0.11224E+23   0.74638E-04   0.46247E+02   0.79363E-01   0.44576E+00   0.37731E+01   0.00000E+00   0.00000E+00   0.37731E+01   0.40477E+00   0.14810E+02   0.30661E-06   0.43304E-04   0.67300E+00   0.46249E+02   0.98324E-01   0.58466E+00
   0.17419E-01   0.55152E-03   0.11432E+23   0.76023E-04   0.45706E+02  -0.14926E+01   0.12340E+01   0.38111E+01   0.00000E+00   0.00000E+00   0.38111E+01   0.39837E+00   0.15124E+02   0.30369E-06   0.43108E-04   0.67590E+00   0.45747E+02  -0.18704E+01   0.60151E+00
   0.18213E-01   0.43333E-03   0.11162E+23   0.74224E-04   0.47258E+02  -0.15919E+01   0.55575E+00   0.37570E+01   0.00000E+00   0.00000E+00   0.37570E+01   0.41475E+00   0.19586E+02   0.31336E-06   0.44163E-04   0.65845E+00   0.47288E+02  -0.19293E+01   0.57894E+00
   0.18114E-01   0.20000E-03   0.10771E+23   0.71626E-04   0.46692E+02  -0.11435E+01  -0.93688E+00   0.37517E+01   0.00000E+00   0.00000E+00   0.37517E+01   0.41002E+00   0.31875E+02   0.29550E-06   0.41617E-04   0.73561E+00   0.46716E+02  -0.14029E+01   0.55789E+00
   0.18362E-01   0.21667E-03   0.11032E+23   0.73364E-04   0.48326E+02  -0.10081E+01  -0.85137E+00   0.37045E+01   0.00000E+00   0.00000E+00   0.37045E+01   0.42700E+00   0.14394E+02   0.31628E-06   0.44261E-04   0.67343E+00   0.48344E+02  -0.11950E+01   0.56423E+00
   0.17965E-01   0.46667E-03   0.11306E+23   0.75182E-04   0.46047E+02  -0.33759E+00  -0.67283E+00   0.37765E+01   0.00000E+00   0.00000E+00   0.37765E+01   0.40288E+00   0.44805E+02   0.31148E-06   0.44012E-04   0.66800E+00   0.46053E+02  -0.42005E+00   0.58945E+00
   0.18362E-01   0.40833E-03   0.11216E+23   0.74585E-04   0.47411E+02  -0.10499E+01   0.21001E+01   0.37130E+01   0.00000E+00   0.00000E+00   0.37130E+01   0.41879E+00   0.19762E+02   0.31135E-06   0.43622E-04   0.67068E+00   0.47469E+02  -0.12685E+01   0.57495E+00
   0.18065E-01   0.35238E-03   0.11242E+23   0.74757E-04   0.47251E+02  -0.44773E+00   0.61335E+00   0.37553E+01   0.00000E+00   0.00000E+00   0.37553E+01   0.41457E+00   0.98863E+01   0.31022E-06   0.43710E-04   0.66760E+00   0.47257E+02  -0.54290E+00   0.58283E+00
   0.18362E-01   0.66667E-04   0.10686E+23   0.71059E-04   0.48344E+02  -0.90528E+00  -0.14330E+01   0.37261E+01   0.00000E+00   0.00000E+00   0.37261E+01   0.42602E+00   0.16861E+02   0.25006E-06   0.35096E-04   0.87028E+00   0.48373E+02  -0.10728E+01   0.54969E+00
   0.18859E-01   0.26667E-03   0.10801E+23   0.71828E-04   0.50156E+02   0.17904E+00   0.23501E+01   0.37078E+01   0.00000E+00   0.00000E+00   0.37078E+01   0.44330E+00   0.41603E+02   0.32459E-06   0.45445E-04   0.66312E+00   0.50212E+02   0.20452E+00   0.55292E+00
   0.18610E-01   0.25333E-03   0.11036E+23   0.73388E-04   0.50016E+02  -0.16220E+01   0.11115E+01   0.37146E+01   0.00000E+00   0.00000E+00   0.37146E+01   0.44151E+00   0.48319E+01   0.31595E-06   0.44275E-04   0.66780E+00   0.50055E+02  -0.18574E+01   0.56596E+00
   0.18610E-01   0.46667E-03   0.11278E+23   0.74997E-04   0.46543E+02  -0.64486E+00   0.18564E+01   0.37316E+01   0.00000E+00   0.00000E+00   0.37316E+01   0.40996E+00   0.29789E+02   0.31153E-06   0.43757E-04   0.66952E+00   0.46584E+02  -0.79379E+00   0.58101E+00
   0.18908E-01   0.46667E-03   0.10966E+23   0.72927E-04   0.48235E+02  -0.20462E+00   0.20856E+01   0.37498E+01   0.00000E+00   0.00000E+00   0.37498E+01   0.42386E+00   0.33765E+02   0.31539E-06   0.44406E-04   0.65951E+00   0.48280E+02  -0.24306E+00   0.56773E+00
   0.18462E-01   0.28000E-03   0.11070E+23   0.73614E-04   0.49118E+02  -0.14907E+01   0.26684E+01   0.37178E+01   0.00000E+00   0.00000E+00   0.37178E+01   0.43390E+00   0.19258E+02   0.31921E-06   0.44753E-04   0.66802E+00   0.49213E+02  -0.17384E+01   0.56819E+00
   0.18759E-01   0.13333E-03   0.10786E+23   0.71726E-04   0.51188E+02  -0.76939E+00   0.95733E+00   0.36946E+01   0.00000E+00   0.00000E+00   0.36946E+01   0.45286E+00   0.30791E+02   0.28592E-06   0.39959E-04   0.76935E+00   0.51203E+02  -0.86113E+00   0.55016E+00
   0.19256E-01   0.20000E-03   0.10543E+23   0.70111E-04   0.52644E+02  -0.35230E+00   0.29670E+01   0.37044E+01   0.00000E+00   0.00000E+00   0.37044E+01   0.46574E+00   0.53166E+02   0.30635E-06   0.42872E-04   0.72054E+00   0.52729E+02  -0.38343E+00   0.53920E+00
   0.19553E-01   0.20000E-03   0.10537E+23   0.70073E-04   0.53488E+02   0.22530E+00   0.32736E+01   0.37187E+01   0.00000E+00   0.00000E+00   0.37187E+01   0.47243E+00   0.26542E+02   0.30910E-06   0.43339E-04   0.70361E+00   0.53589E+02   0.24133E+00   0.54098E+00
   0.19553E-01   0.46667E-03   0.10906E+23   0.72527E-04   0.48827E+02  -0.95515E+00   0.23344E+01   0.37438E+01   0.00000E+00   0.00000E+00   0.37438E+01   0.42957E+00   0.24015E+02   0.32153E-06   0.45234E-04   0.65449E+00   0.48892E+02  -0.11207E+01   0.56371E+00
   0.19355E-01   0.40833E-03   0.10691E+23   0.71096E-04   0.50370E+02  -0.28796E+00   0.20611E+01   0.37967E+01   0.00000E+00   0.00000E+00   0.37967E+01   0.43984E+00   0.18841E+02   0.32344E-06   0.45823E-04   0.64820E+00   0.50413E+02  -0.32755E+00   0.56039E+00
   0.19355E-01   0.55152E-03   0.10862E+23   0.72234E-04   0.48766E+02  -0.34388E+00  -0.81075E+00   0.37632E+01   0.00000E+00   0.00000E+00   0.37632E+01   0.42743E+00   0.95866E+01   0.10000E+11   0.12981E-03   0.00000E+00   0.48774E+02  -0.40403E+00   0.56434E+00
   0.19156E-01   0.40833E-03   0.10837E+23   0.72064E-04   0.49112E+02  -0.35959E+00   0.29767E+01   0.37559E+01   0.00000E+00   0.00000E+00   0.37559E+01   0.43161E+00   0.19077E+02   0.32031E-06   0.45136E-04   0.65535E+00   0.49203E+02  -0.41950E+00   0.56192E+00
   0.19156E-01   0.60556E-03   0.11072E+23   0.73629E-04   0.48032E+02  -0.58162E+00   0.14486E+01   0.37380E+01   0.00000E+00   0.00000E+00   0.37380E+01   0.42257E+00   0.14654E+02   0.31989E-06   0.44969E-04   0.65503E+00   0.48058E+02  -0.69376E+00   0.57139E+00
   0.20050E-01   0.37143E-03   0.10826E+23   0.71992E-04   0.50802E+02   0.50295E+00   0.57296E+00   0.37045E+01   0.00000E+00   0.00000E+00   0.37045E+01   0.44877E+00   0.28566E+02   0.32591E-06   0.45610E-04   0.65166E+00   0.50808E+02   0.56722E+00   0.55368E+00
   0.19801E-01   0.20000E-03   0.10441E+23   0.69436E-04   0.54032E+02   0.27415E+00   0.62981E+00   0.36998E+01   0.00000E+00   0.00000E+00   0.36998E+01   0.47758E+00   0.35400E+02   0.31860E-06   0.44557E-04   0.68949E+00   0.54036E+02   0.29071E+00   0.53334E+00
   0.20050E-01   0.20000E-03   0.10527E+23   0.70006E-04   0.53034E+02  -0.69466E+00  -0.12092E+01   0.36432E+01   0.00000E+00   0.00000E+00   0.36432E+01   0.47252E+00   0.34477E+02   0.30517E-06   0.42352E-04   0.73650E+00   0.53052E+02  -0.75044E+00   0.52949E+00
   0.19752E-01   0.50667E-03   0.10737E+23   0.71402E-04   0.50057E+02   0.80996E+00   0.86191E+00   0.37670E+01   0.00000E+00   0.00000E+00   0.37670E+01   0.43857E+00   0.18945E+02   0.32190E-06   0.45427E-04   0.65978E+00   0.50071E+02   0.92701E+00   0.55841E+00
   0.19950E-01   0.50667E-03   0.10704E+23   0.71184E-04   0.49196E+02   0.16418E+01  -0.31006E+00   0.37738E+01   0.00000E+00   0.00000E+00   0.37738E+01   0.43077E+00   0.14147E+02   0.33225E-06   0.46929E-04   0.64074E+00   0.49224E+02   0.19114E+01   0.55771E+00
   0.19702E-01   0.35238E-03   0.10772E+23   0.71634E-04   0.52831E+02  -0.59017E-01   0.29349E+01   0.37214E+01   0.00000E+00   0.00000E+00   0.37214E+01   0.46629E+00   0.14212E+02   0.32624E-06   0.45760E-04   0.65292E+00   0.52913E+02  -0.64004E-01   0.55344E+00
   0.20546E-01   0.31111E-03   0.10577E+23   0.70339E-04   0.51247E+02   0.84331E+00  -0.25980E+00   0.36510E+01   0.00000E+00   0.00000E+00   0.36510E+01   0.45601E+00   0.13908E+02   0.32801E-06   0.45571E-04   0.64453E+00   0.51254E+02   0.94277E+00   0.53316E+00
   0.20447E-01   0.46667E-03   0.10651E+23   0.70827E-04   0.48824E+02   0.74447E+00   0.16722E+01   0.37277E+01   0.00000E+00   0.00000E+00   0.37277E+01   0.43020E+00   0.42173E+02   0.33052E-06   0.46399E-04   0.64263E+00   0.48858E+02   0.87359E+00   0.54813E+00
   0.20744E-01   0.46667E-03   0.10579E+23   0.70350E-04   0.49612E+02   0.11329E+01   0.19916E+01   0.37760E+01   0.00000E+00   0.00000E+00   0.37760E+01   0.43449E+00   0.18605E+02   0.33424E-06   0.47224E-04   0.63681E+00   0.49665E+02   0.13081E+01   0.55149E+00
   0.20397E-01   0.13333E-03   0.10358E+23   0.68882E-04   0.53079E+02   0.46839E+00  -0.27708E+00   0.36246E+01   0.00000E+00   0.00000E+00   0.36246E+01   0.47398E+00   0.25580E+02   0.31085E-06   0.43031E-04   0.71961E+00   0.53081E+02   0.50560E+00   0.51834E+00
   0.20298E-01   0.31111E-03   0.10676E+23   0.70993E-04   0.50946E+02   0.61555E+00  -0.13038E+00   0.36669E+01   0.00000E+00   0.00000E+00   0.36669E+01   0.45232E+00   0.23470E+02   0.33438E-06   0.46556E-04   0.64843E+00   0.50950E+02   0.69224E+00   0.54045E+00
   0.20695E-01   0.13333E-03   0.10127E+23   0.67346E-04   0.52115E+02   0.43047E+00  -0.25089E+01   0.36703E+01   0.00000E+00   0.00000E+00   0.36703E+01   0.46300E+00   0.25083E+02   0.30151E-06   0.42000E-04   0.74743E+00   0.52177E+02   0.47325E+00   0.51317E+00
   0.20695E-01   0.25333E-03   0.10369E+23   0.68953E-04   0.52297E+02   0.10676E+01  -0.70343E+00   0.36618E+01   0.00000E+00   0.00000E+00   0.36618E+01   0.46474E+00   0.45409E+01   0.32297E-06   0.44937E-04   0.66104E+00   0.52312E+02   0.11695E+01   0.52420E+00
   0.21092E-01   0.26667E-03   0.10262E+23   0.68240E-04   0.51616E+02  -0.30228E+00   0.10100E+01   0.37503E+01   0.00000E+00   0.00000E+00   0.37503E+01   0.45321E+00   0.43141E+02   0.32034E-06   0.45107E-04   0.68659E+00   0.51627E+02  -0.33554E+00   0.53132E+00
   0.21241E-01   0.46667E-03   0.10487E+23   0.69736E-04   0.50091E+02  -0.17422E+00   0.89534E+00   0.37169E+01   0.00000E+00   0.00000E+00   0.37169E+01   0.44177E+00   0.36886E+02   0.33454E-06   0.46895E-04   0.64584E+00   0.50099E+02  -0.19928E+00   0.53812E+00
   0.20943E-01   0.40833E-03   0.10623E+23   0.70642E-04   0.49674E+02  -0.38628E+00   0.11181E+01   0.37644E+01   0.00000E+00   0.00000E+00   0.37644E+01   0.43537E+00   0.14052E+02   0.33387E-06   0.47100E-04   0.64210E+00   0.49688E+02  -0.44554E+00   0.55208E+00
   0.21340E-01   0.26667E-03   0.10198E+23   0.67820E-04   0.52024E+02  -0.83231E+00   0.10390E+01   0.37497E+01   0.00000E+00   0.00000E+00   0.37497E+01   0.45688E+00   0.26326E+02   0.32625E-06   0.45935E-04   0.67040E+00   0.52041E+02  -0.91656E+00   0.52795E+00
   0.20844E-01   0.26667E-03   0.10367E+23   0.68939E-04   0.51058E+02  -0.73175E-01   0.12762E+01   0.37417E+01   0.00000E+00   0.00000E+00   0.37417E+01   0.44887E+00   0.26705E+02   0.31433E-06   0.44210E-04   0.70229E+00   0.51074E+02  -0.82114E-01   0.53552E+00
   0.20893E-01   0.55152E-03   0.10480E+23   0.69690E-04   0.49160E+02   0.10191E+00   0.13750E+01   0.38166E+01   0.00000E+00   0.00000E+00   0.38166E+01   0.42795E+00   0.13876E+02   0.34518E-06   0.49032E-04   0.61624E+00   0.49179E+02   0.11877E+00   0.55220E+00
   0.21638E-01   0.43333E-03   0.10218E+23   0.67947E-04   0.52880E+02  -0.10198E+01   0.28807E+01   0.37394E+01   0.00000E+00   0.00000E+00   0.37394E+01   0.46566E+00   0.40369E+02   0.34148E-06   0.48012E-04   0.63355E+00   0.52969E+02  -0.11048E+01   0.52749E+00
   0.21985E-01   0.43333E-03   0.99749E+22   0.66333E-04   0.54287E+02  -0.64032E+00   0.23752E+01   0.37548E+01   0.00000E+00   0.00000E+00   0.37548E+01   0.47676E+00   0.43880E+02   0.34705E-06   0.48897E-04   0.63699E+00   0.54343E+02  -0.67578E+00   0.51709E+00
   0.21787E-01   0.20000E-03   0.99444E+22   0.66131E-04   0.55431E+02   0.26533E+00   0.27375E+00   0.36763E+01   0.00000E+00   0.00000E+00   0.36763E+01   0.49148E+00   0.21050E+02   0.28149E-06   0.39242E-04   0.82701E+00   0.55432E+02   0.27425E+00   0.50473E+00
   0.21588E-01   0.20000E-03   0.99747E+22   0.66332E-04   0.54231E+02   0.81842E-01   0.22392E+00   0.36906E+01   0.00000E+00   0.00000E+00   0.36906E+01   0.47990E+00   0.12649E+02   0.32032E-06   0.44743E-04   0.69307E+00   0.54231E+02   0.86468E-01   0.50824E+00
   0.21439E-01   0.20000E-03   0.10097E+23   0.67146E-04   0.53017E+02  -0.86463E+00   0.64125E+00   0.36839E+01   0.00000E+00   0.00000E+00   0.36839E+01   0.46968E+00   0.21095E+02   0.28646E-06   0.39977E-04   0.78310E+00   0.53028E+02  -0.93433E+00   0.51355E+00
   0.21836E-01   0.66667E-04   0.95630E+22   0.63594E-04   0.56076E+02  -0.17592E+00  -0.62534E+00   0.36327E+01   0.00000E+00   0.00000E+00   0.36327E+01   0.50020E+00   0.76300E+01   0.27846E-06   0.38590E-04   0.83864E+00   0.56080E+02  -0.17974E+00   0.47962E+00
   0.22283E-01   0.37143E-03   0.98140E+22   0.65263E-04   0.55967E+02   0.33704E-01   0.22548E+01   0.37565E+01   0.00000E+00   0.00000E+00   0.37565E+01   0.49130E+00   0.30089E+02   0.35395E-06   0.49880E-04   0.62303E+00   0.56013E+02   0.34504E-01   0.50898E+00
   0.22184E-01   0.20000E-03   0.97232E+22   0.64659E-04   0.58351E+02   0.36011E+00   0.17938E+01   0.36958E+01   0.00000E+00   0.00000E+00   0.36958E+01   0.51625E+00   0.24919E+02   0.31589E-06   0.44156E-04   0.72367E+00   0.58379E+02   0.35359E+00   0.49611E+00
   0.22481E-01   0.20000E-03   0.96329E+22   0.64059E-04   0.56465E+02  -0.13812E+00  -0.45867E+00   0.37354E+01   0.00000E+00   0.00000E+00   0.37354E+01   0.49668E+00   0.32146E+02   0.33118E-06   0.46540E-04   0.68258E+00   0.56467E+02  -0.14015E+00   0.49678E+00
   0.22481E-01   0.52667E-03   0.10037E+23   0.66745E-04   0.53083E+02   0.48170E+00   0.29499E+01   0.37577E+01   0.00000E+00   0.00000E+00   0.37577E+01   0.46627E+00   0.39687E+02   0.34687E-06   0.48891E-04   0.63414E+00   0.53167E+02   0.51992E+00   0.52070E+00
   0.22233E-01   0.60556E-03   0.10182E+23   0.67709E-04   0.51631E+02   0.13060E-01   0.22118E+01   0.37470E+01   0.00000E+00   0.00000E+00   0.37470E+01   0.45386E+00   0.26963E+02   0.34746E-06   0.48903E-04   0.62808E+00   0.51679E+02   0.14493E-01   0.52672E+00
   0.22084E-01   0.13333E-03   0.96748E+22   0.64337E-04   0.59619E+02  -0.10084E+01   0.13873E+01   0.36544E+01   0.00000E+00   0.00000E+00   0.36544E+01   0.53040E+00   0.15516E+02   0.10000E+11   0.14574E-03   0.00000E+00   0.59644E+02  -0.96902E+00   0.48813E+00
   0.23027E-01   0.43333E-03   0.96849E+22   0.64405E-04   0.55868E+02   0.35482E+00   0.49535E+00   0.37091E+01   0.00000E+00   0.00000E+00   0.37091E+01   0.49318E+00   0.25564E+02   0.34380E-06   0.48143E-04   0.63486E+00   0.55872E+02   0.36388E+00   0.49595E+00
   0.22779E-01   0.46667E-03   0.99182E+22   0.65956E-04   0.54044E+02  -0.29328E+00   0.23513E+01   0.37126E+01   0.00000E+00   0.00000E+00   0.37126E+01   0.47729E+00   0.30619E+02   0.35763E-06   0.50103E-04   0.61679E+00   0.54096E+02  -0.31093E+00   0.50837E+00
   0.22829E-01   0.21667E-03   0.98682E+22   0.65623E-04   0.56002E+02  -0.78672E+00  -0.13953E+00   0.36835E+01   0.00000E+00   0.00000E+00   0.36835E+01   0.49610E+00   0.29980E+02   0.35776E-06   0.49924E-04   0.62615E+00   0.56008E+02  -0.80484E+00   0.50185E+00
   0.23127E-01   0.20000E-03   0.96376E+22   0.64090E-04   0.58400E+02  -0.53469E+00   0.18114E+01   0.36875E+01   0.00000E+00   0.00000E+00   0.36875E+01   0.51728E+00   0.24256E+02   0.37195E-06   0.51933E-04   0.60952E+00   0.58430E+02  -0.52457E+00   0.49065E+00
   0.22829E-01   0.66667E-04   0.95166E+22   0.63286E-04   0.59226E+02   0.70581E-01   0.47820E+00   0.36606E+01   0.00000E+00   0.00000E+00   0.36606E+01   0.52626E+00   0.15012E+02   0.29897E-06   0.41591E-04   0.78608E+00   0.59228E+02   0.68281E-01   0.48095E+00
   0.22829E-01   0.35238E-03   0.98503E+22   0.65504E-04   0.55476E+02  -0.10113E+01   0.15690E+01   0.36945E+01   0.00000E+00   0.00000E+00   0.36945E+01   0.49094E+00   0.86616E+01   0.35723E-06   0.49926E-04   0.62321E+00   0.55507E+02  -0.10443E+01   0.50243E+00
   0.23573E-01   0.43333E-03   0.95065E+22   0.63218E-04   0.57309E+02   0.22888E+00   0.17031E+01   0.37202E+01   0.00000E+00   0.00000E+00   0.37202E+01   0.50534E+00   0.16732E+02   0.36881E-06   0.51723E-04   0.60868E+00   0.57334E+02   0.22883E+00   0.48827E+00
   0.23672E-01   0.20000E-03   0.94071E+22   0.62557E-04   0.58100E+02   0.77572E+00   0.18302E+01   0.36527E+01   0.00000E+00   0.00000E+00   0.36527E+01   0.51710E+00   0.27939E+02   0.34326E-06   0.47700E-04   0.68031E+00   0.58134E+02   0.76494E+00   0.47439E+00
   0.23375E-01   0.20000E-03   0.94681E+22   0.62963E-04   0.58853E+02  -0.51476E-01   0.17900E+01   0.36924E+01   0.00000E+00   0.00000E+00   0.36924E+01   0.52092E+00   0.31722E+02   0.30421E-06   0.42503E-04   0.76530E+00   0.58881E+02  -0.50114E-01   0.48266E+00
   0.23275E-01   0.46667E-03   0.97315E+22   0.64715E-04   0.55099E+02  -0.41735E+00   0.15226E+01   0.37763E+01   0.00000E+00   0.00000E+00   0.37763E+01   0.48221E+00   0.34288E+02   0.35471E-06   0.50120E-04   0.62982E+00   0.55122E+02  -0.43398E+00   0.50736E+00
   0.23474E-01   0.43333E-03   0.95498E+22   0.63506E-04   0.57125E+02   0.11884E+00   0.28764E+01   0.37321E+01   0.00000E+00   0.00000E+00   0.37321E+01   0.50333E+00   0.16773E+02   0.36861E-06   0.51777E-04   0.61404E+00   0.57198E+02   0.11920E+00   0.49206E+00
   0.23722E-01   0.46667E-03   0.94847E+22   0.63073E-04   0.57072E+02   0.10220E+01   0.18557E+01   0.37563E+01   0.00000E+00   0.00000E+00   0.37563E+01   0.50095E+00   0.16671E+02   0.35618E-06   0.50193E-04   0.64165E+00   0.57112E+02   0.10259E+01   0.49187E+00
   0.24069E-01   0.46667E-03   0.93000E+22   0.61845E-04   0.57119E+02  -0.60471E+00   0.17082E+01   0.37329E+01   0.00000E+00   0.00000E+00   0.37329E+01   0.50284E+00   0.28618E+02   0.37498E-06   0.52677E-04   0.60137E+00   0.57148E+02  -0.60656E+00   0.47929E+00
   0.24367E-01   0.20000E-03   0.89599E+22   0.59583E-04   0.58811E+02   0.44789E+00  -0.57658E+00   0.37192E+01   0.00000E+00   0.00000E+00   0.37192E+01   0.51847E+00   0.33782E+02   0.36223E-06   0.50792E-04   0.64601E+00   0.58816E+02   0.43634E+00   0.46006E+00
   0.24069E-01   0.20000E-03   0.90976E+22   0.60499E-04   0.59230E+02  -0.13977E+00   0.19768E+01   0.37192E+01   0.00000E+00   0.00000E+00   0.37192E+01   0.52241E+00   0.30755E+02   0.36083E-06   0.50596E-04   0.65221E+00   0.59263E+02  -0.13521E+00   0.46713E+00
   0.24318E-01   0.46667E-03   0.93973E+22   0.62492E-04   0.57405E+02   0.13583E+00   0.13229E+01   0.37139E+01   0.00000E+00   0.00000E+00   0.37139E+01   0.50652E+00   0.20676E+02   0.37611E-06   0.52702E-04   0.60447E+00   0.57420E+02   0.13558E+00   0.48184E+00
   0.23871E-01   0.20000E-03   0.92098E+22   0.61245E-04   0.58405E+02  -0.45487E+00   0.91085E+00   0.37278E+01   0.00000E+00   0.00000E+00   0.37278E+01   0.51432E+00   0.18806E+02   0.25939E-06   0.36415E-04   0.93681E+00   0.58413E+02  -0.44622E+00   0.47400E+00
   0.23871E-01   0.46667E-03   0.94679E+22   0.62961E-04   0.55136E+02   0.24569E+00   0.62944E+00   0.37310E+01   0.00000E+00   0.00000E+00   0.37310E+01   0.48530E+00   0.29142E+02   0.36366E-06   0.51074E-04   0.61953E+00   0.55140E+02   0.25532E+00   0.48769E+00
   0.24814E-01   0.43333E-03   0.91975E+22   0.61163E-04   0.57508E+02  -0.12158E+00   0.83970E+00   0.37077E+01   0.00000E+00   0.00000E+00   0.37077E+01   0.50778E+00   0.32320E+02   0.38020E-06   0.53231E-04   0.60039E+00   0.57514E+02  -0.12113E+00   0.47081E+00
   0.24864E-01   0.20000E-03   0.88901E+22   0.59119E-04   0.59667E+02  -0.61832E-01   0.21462E+01   0.36757E+01   0.00000E+00   0.00000E+00   0.36757E+01   0.52942E+00   0.11057E+02   0.33283E-06   0.46398E-04   0.75022E+00   0.59706E+02  -0.59374E-01   0.45115E+00
   0.24665E-01   0.20000E-03   0.88646E+22   0.58950E-04   0.58152E+02   0.43233E+00   0.12788E+01   0.37340E+01   0.00000E+00   0.00000E+00   0.37340E+01   0.51174E+00   0.29606E+02   0.37057E-06   0.52066E-04   0.63786E+00   0.58168E+02   0.42596E+00   0.45699E+00
   0.24516E-01   0.46667E-03   0.93568E+22   0.62223E-04   0.57108E+02   0.21842E+00   0.16566E+00   0.37436E+01   0.00000E+00   0.00000E+00   0.37436E+01   0.50178E+00   0.37074E+02   0.37377E-06   0.52583E-04   0.60123E+00   0.57109E+02   0.21914E+00   0.48360E+00
   0.25012E-01   0.20000E-03   0.90489E+22   0.60175E-04   0.58459E+02   0.19407E+00   0.73800E+00   0.36283E+01   0.00000E+00   0.00000E+00   0.36283E+01   0.52178E+00   0.18875E+02   0.41017E-06   0.56808E-04   0.57194E+00   0.58464E+02   0.19021E+00   0.45328E+00
   0.25310E-01   0.25333E-03   0.89120E+22   0.59265E-04   0.57847E+02   0.30570E+00   0.40510E+00   0.36672E+01   0.00000E+00   0.00000E+00   0.36672E+01   0.51355E+00   0.77978E+01   0.39490E-06   0.54986E-04   0.59662E+00   0.57850E+02   0.30278E+00   0.45121E+00
   0.25211E-01   0.46667E-03   0.91158E+22   0.60620E-04   0.58061E+02   0.45992E+00   0.57044E+00   0.37509E+01   0.00000E+00   0.00000E+00   0.37509E+01   0.50969E+00   0.32138E+02   0.37638E-06   0.53002E-04   0.61317E+00   0.58066E+02   0.45385E+00   0.47206E+00
   0.25558E-01   0.20000E-03   0.86979E+22   0.57841E-04   0.61379E+02  -0.40798E+00  -0.49039E+00   0.36854E+01   0.00000E+00   0.00000E+00   0.36854E+01   0.54357E+00   0.28941E+02   0.35824E-06   0.50004E-04   0.68438E+00   0.61382E+02  -0.38083E+00   0.44255E+00