VARIABLES = "X","Y","ND","D","U","V","W","TTR","TRT","TVB","TOV","MA","MC","MCT","MFP","SOF","FSP","ANG","P"
 ZONE I=        8020  F=POINT
   0.15215E-01   0.26820E-03   0.18883E+23   0.12557E-03   0.34295E+02   0.87018E+00   0.12549E+01   0.37764E+01   0.00000E+00   0.00000E+00   0.37764E+01   0.30032E+00   0.25238E+02   0.18520E-06   0.26168E-04   0.74852E+00   0.34329E+02   0.14535E+01   0.98450E+00
   0.15086E-01   0.24138E-03   0.18554E+23   0.12339E-03   0.33377E+02   0.63043E+00   0.94167E+00   0.37746E+01   0.00000E+00   0.00000E+00   0.37746E+01   0.29222E+00   0.45243E+02   0.18757E-06   0.26496E-04   0.73984E+00   0.33396E+02   0.10821E+01   0.96690E+00
   0.15258E-01   0.11494E-03   0.18553E+23   0.12338E-03   0.33804E+02   0.49472E+00   0.33494E+00   0.37240E+01   0.00000E+00   0.00000E+00   0.37240E+01   0.29784E+00   0.31909E+02   0.17639E-06   0.24750E-04   0.80892E+00   0.33809E+02   0.83847E+00   0.95389E+00
   0.15043E-01   0.43678E-03   0.18862E+23   0.12543E-03   0.29937E+02  -0.17067E+01   0.55571E+00   0.37954E+01   0.00000E+00   0.00000E+00   0.37954E+01   0.26171E+00   0.16854E+02   0.18642E-06   0.26407E-04   0.72874E+00   0.29991E+02  -0.32629E+01   0.98833E+00
   0.15387E-01   0.26820E-03   0.18887E+23   0.12560E-03   0.33425E+02  -0.10910E-01   0.15370E+01   0.37598E+01   0.00000E+00   0.00000E+00   0.37598E+01   0.29336E+00   0.25222E+02   0.18644E-06   0.26285E-04   0.74399E+00   0.33461E+02  -0.18702E-01   0.98040E+00
   0.15172E-01   0.47544E-03   0.19244E+23   0.12797E-03   0.33387E+02   0.12382E+00   0.10748E+01   0.37904E+01   0.00000E+00   0.00000E+00   0.37904E+01   0.29169E+00   0.25855E+02   0.18247E-06   0.25830E-04   0.75134E+00   0.33405E+02   0.21249E+00   0.10070E+01
   0.15172E-01   0.38953E-03   0.18982E+23   0.12623E-03   0.33719E+02  -0.61588E-01   0.14630E+01   0.38221E+01   0.00000E+00   0.00000E+00   0.38221E+01   0.29348E+00   0.84866E+01   0.18626E-06   0.26478E-04   0.74354E+00   0.33751E+02  -0.10465E+00   0.10017E+01
   0.15301E-01   0.43678E-03   0.19076E+23   0.12686E-03   0.34324E+02   0.75030E+00  -0.33142E+00   0.37855E+01   0.00000E+00   0.00000E+00   0.37855E+01   0.29999E+00   0.25595E+02   0.18334E-06   0.25937E-04   0.74862E+00   0.34334E+02   0.12523E+01   0.99697E+00
   0.15129E-01   0.57471E-04   0.18292E+23   0.12164E-03   0.33144E+02   0.92862E+00   0.57467E+00   0.37144E+01   0.00000E+00   0.00000E+00   0.37144E+01   0.29252E+00   0.25443E+02   0.15702E-06   0.22004E-04   0.92977E+00   0.33162E+02   0.16049E+01   0.93805E+00
   0.15731E-01   0.26820E-03   0.18375E+23   0.12219E-03   0.35322E+02  -0.72492E+00   0.39153E+00   0.37661E+01   0.00000E+00   0.00000E+00   0.37661E+01   0.30951E+00   0.24513E+02   0.19151E-06   0.27023E-04   0.73319E+00   0.35332E+02  -0.11757E+01   0.95539E+00
   0.15602E-01   0.40230E-03   0.19212E+23   0.12776E-03   0.33634E+02  -0.22951E+01   0.19365E+00   0.37550E+01   0.00000E+00   0.00000E+00   0.37550E+01   0.29577E+00   0.25692E+02   0.18516E-06   0.26088E-04   0.74177E+00   0.33713E+02  -0.39036E+01   0.99600E+00
   0.15817E-01   0.43678E-03   0.18920E+23   0.12582E-03   0.35784E+02  -0.10336E+01   0.23928E+00   0.37424E+01   0.00000E+00   0.00000E+00   0.37424E+01   0.31460E+00   0.33809E+02   0.18671E-06   0.26263E-04   0.74327E+00   0.35799E+02  -0.16544E+01   0.97756E+00
   0.15602E-01   0.11494E-03   0.18551E+23   0.12336E-03   0.34549E+02   0.30531E+00   0.15412E+01   0.36598E+01   0.00000E+00   0.00000E+00   0.36598E+01   0.30733E+00   0.15292E+02   0.17423E-06   0.24235E-04   0.83125E+00   0.34585E+02   0.50631E+00   0.93732E+00
   0.15559E-01   0.21839E-03   0.18239E+23   0.12129E-03   0.34027E+02  -0.87976E+00   0.16519E+01   0.37873E+01   0.00000E+00   0.00000E+00   0.37873E+01   0.29769E+00   0.16214E+02   0.19112E-06   0.27044E-04   0.73937E+00   0.34078E+02  -0.14811E+01   0.95367E+00
   0.15860E-01   0.24138E-03   0.18411E+23   0.12244E-03   0.36259E+02  -0.49173E+00   0.42764E+00   0.37448E+01   0.00000E+00   0.00000E+00   0.37448E+01   0.31859E+00   0.24357E+02   0.18961E-06   0.26679E-04   0.74352E+00   0.36265E+02  -0.77697E+00   0.95188E+00
   0.15688E-01   0.40230E-03   0.18790E+23   0.12495E-03   0.35277E+02  -0.14182E+01   0.10463E+01   0.37585E+01   0.00000E+00   0.00000E+00   0.37585E+01   0.30973E+00   0.25126E+02   0.18837E-06   0.26553E-04   0.73674E+00   0.35321E+02  -0.23021E+01   0.97500E+00
   0.15946E-01   0.24138E-03   0.18234E+23   0.12126E-03   0.37568E+02  -0.36926E-01   0.52248E+00   0.37442E+01   0.00000E+00   0.00000E+00   0.37442E+01   0.33009E+00   0.24169E+02   0.19113E-06   0.26890E-04   0.73748E+00   0.37572E+02  -0.56317E-01   0.94257E+00
   0.15473E-01   0.40230E-03   0.19103E+23   0.12703E-03   0.33593E+02  -0.14441E+00   0.10772E+01   0.37357E+01   0.00000E+00   0.00000E+00   0.37357E+01   0.29562E+00   0.42665E+02   0.18548E-06   0.26067E-04   0.74258E+00   0.33610E+02  -0.24631E+00   0.98523E+00
   0.15731E-01   0.11494E-03   0.17927E+23   0.11922E-03   0.37027E+02  -0.13664E+01  -0.88120E+00   0.37005E+01   0.00000E+00   0.00000E+00   0.37005E+01   0.32754E+00   0.29843E+02   0.17759E-06   0.24839E-04   0.82976E+00   0.37063E+02  -0.21133E+01   0.91590E+00
   0.15946E-01   0.57471E-04   0.17477E+23   0.11622E-03   0.40316E+02   0.16101E+00  -0.10062E+01   0.37126E+01   0.00000E+00   0.00000E+00   0.37126E+01   0.35582E+00   0.20674E+02   0.16564E-06   0.23207E-04   0.91024E+00   0.40329E+02   0.22883E+00   0.89578E+00
   0.15473E-01   0.17241E-03   0.18399E+23   0.12235E-03   0.34499E+02  -0.94887E+00   0.62641E+00   0.36632E+01   0.00000E+00   0.00000E+00   0.36632E+01   0.30660E+00   0.38588E+02   0.18123E-06   0.25220E-04   0.79607E+00   0.34518E+02  -0.15755E+01   0.93050E+00
   0.16289E-01   0.24138E-03   0.18129E+23   0.12055E-03   0.38624E+02  -0.13426E+01   0.22386E+00   0.37834E+01   0.00000E+00   0.00000E+00   0.37834E+01   0.33778E+00   0.47893E+02   0.19170E-06   0.27111E-04   0.73689E+00   0.38648E+02  -0.19909E+01   0.94691E+00
   0.16117E-01   0.40230E-03   0.18771E+23   0.12483E-03   0.38742E+02  -0.14721E+01  -0.69399E+00   0.37593E+01   0.00000E+00   0.00000E+00   0.37593E+01   0.33999E+00   0.25084E+02   0.18706E-06   0.26371E-04   0.74344E+00   0.38776E+02  -0.21760E+01   0.97422E+00
   0.16074E-01   0.21839E-03   0.17964E+23   0.11946E-03   0.38190E+02   0.41663E+00  -0.15405E+01   0.37551E+01   0.00000E+00   0.00000E+00   0.37551E+01   0.33533E+00   0.15967E+02   0.19306E-06   0.27202E-04   0.73335E+00   0.38224E+02   0.62504E+00   0.93132E+00
   0.16375E-01   0.43678E-03   0.18812E+23   0.12510E-03   0.41300E+02  -0.39622E+01   0.16795E+00   0.37346E+01   0.00000E+00   0.00000E+00   0.37346E+01   0.36498E+00   0.16806E+02   0.18813E-06   0.26435E-04   0.73992E+00   0.41490E+02  -0.54800E+01   0.96994E+00
   0.16289E-01   0.57471E-04   0.16947E+23   0.11270E-03   0.37236E+02  -0.84269E-01   0.12790E+01   0.38071E+01   0.00000E+00   0.00000E+00   0.38071E+01   0.32462E+00   0.20236E+02   0.16689E-06   0.23677E-04   0.89704E+00   0.37259E+02  -0.12966E+00   0.89078E+00
   0.16332E-01   0.30378E-03   0.18477E+23   0.12287E-03   0.40354E+02  -0.22947E+01  -0.54180E+00   0.37689E+01   0.00000E+00   0.00000E+00   0.37689E+01   0.35397E+00   0.16487E+02   0.18954E-06   0.26755E-04   0.73609E+00   0.40422E+02  -0.32547E+01   0.96143E+00
   0.16504E-01   0.30378E-03   0.18583E+23   0.12358E-03   0.42061E+02  -0.34033E+01   0.70928E+00   0.37202E+01   0.00000E+00   0.00000E+00   0.37202E+01   0.37199E+00   0.16580E+02   0.19057E-06   0.26726E-04   0.73644E+00   0.42205E+02  -0.46260E+01   0.95444E+00
   0.16246E-01   0.43678E-03   0.18917E+23   0.12580E-03   0.39923E+02  -0.18861E+01  -0.60709E+00   0.37325E+01   0.00000E+00   0.00000E+00   0.37325E+01   0.35173E+00   0.33830E+02   0.18856E-06   0.26488E-04   0.73438E+00   0.39972E+02  -0.27048E+01   0.97482E+00
   0.16461E-01   0.43678E-03   0.18461E+23   0.12277E-03   0.41716E+02  -0.25512E+01  -0.36127E+00   0.37818E+01   0.00000E+00   0.00000E+00   0.37818E+01   0.36537E+00   0.16512E+02   0.18966E-06   0.26817E-04   0.73323E+00   0.41795E+02  -0.34996E+01   0.96389E+00
   0.16117E-01   0.11494E-03   0.17403E+23   0.11573E-03   0.38227E+02   0.59090E+00  -0.55247E+00   0.37839E+01   0.00000E+00   0.00000E+00   0.37839E+01   0.33416E+00   0.29686E+02   0.18800E-06   0.26591E-04   0.77664E+00   0.38236E+02   0.88558E+00   0.90917E+00
   0.15989E-01   0.40230E-03   0.18631E+23   0.12390E-03   0.37787E+02  -0.93860E+00  -0.36986E+00   0.37628E+01   0.00000E+00   0.00000E+00   0.37628E+01   0.33128E+00   0.41512E+02   0.18898E-06   0.26655E-04   0.73802E+00   0.37801E+02  -0.14229E+01   0.96788E+00
   0.16891E-01   0.22989E-03   0.18221E+23   0.12117E-03   0.43988E+02   0.79495E-01  -0.90580E+00   0.37361E+01   0.00000E+00   0.00000E+00   0.37361E+01   0.38696E+00   0.54921E+02   0.18775E-06   0.26387E-04   0.76253E+00   0.43998E+02   0.10354E+00   0.93987E+00
   0.16633E-01   0.21839E-03   0.18054E+23   0.12006E-03   0.44882E+02  -0.35098E+01  -0.97969E+00   0.37348E+01   0.00000E+00   0.00000E+00   0.37348E+01   0.39611E+00   0.80098E+01   0.19353E-06   0.27195E-04   0.72991E+00   0.45030E+02  -0.44714E+01   0.93094E+00
   0.16590E-01   0.43678E-03   0.18753E+23   0.12471E-03   0.41230E+02  -0.20201E+01  -0.71755E+00   0.37386E+01   0.00000E+00   0.00000E+00   0.37386E+01   0.36299E+00   0.33505E+02   0.19002E-06   0.26714E-04   0.73334E+00   0.41286E+02  -0.28050E+01   0.96793E+00
   0.16805E-01   0.43678E-03   0.18591E+23   0.12363E-03   0.42622E+02  -0.51704E+00  -0.16875E+01   0.37370E+01   0.00000E+00   0.00000E+00   0.37370E+01   0.37515E+00   0.49889E+02   0.19029E-06   0.26748E-04   0.73381E+00   0.42659E+02  -0.69501E+00   0.95919E+00
   0.16719E-01   0.21839E-03   0.18450E+23   0.12269E-03   0.43316E+02   0.83414E-01  -0.14179E+00   0.36656E+01   0.00000E+00   0.00000E+00   0.36656E+01   0.38462E+00   0.81833E+01   0.19097E-06   0.26585E-04   0.74023E+00   0.43316E+02   0.11034E+00   0.93371E+00
   0.16977E-01   0.40230E-03   0.18345E+23   0.12200E-03   0.43166E+02  -0.97616E+00  -0.24970E+01   0.37500E+01   0.00000E+00   0.00000E+00   0.37500E+01   0.37968E+00   0.24612E+02   0.19156E-06   0.26972E-04   0.73469E+00   0.43250E+02  -0.12955E+01   0.94979E+00
   0.16633E-01   0.13410E-03   0.17979E+23   0.11956E-03   0.43474E+02  -0.20719E+01  -0.49860E+00   0.37294E+01   0.00000E+00   0.00000E+00   0.37294E+01   0.38316E+00   0.23777E+02   0.18888E-06   0.26522E-04   0.75582E+00   0.43526E+02  -0.27285E+01   0.92572E+00
   0.16504E-01   0.57471E-04   0.17737E+23   0.11795E-03   0.38809E+02  -0.10748E+00   0.16707E+01   0.37366E+01   0.00000E+00   0.00000E+00   0.37366E+01   0.34163E+00   0.14101E+02   0.16146E-06   0.22693E-04   0.91685E+00   0.38846E+02  -0.15867E+00   0.91500E+00
   0.16719E-01   0.30378E-03   0.18385E+23   0.12226E-03   0.42564E+02  -0.76711E+00  -0.10311E+01   0.37222E+01   0.00000E+00   0.00000E+00   0.37222E+01   0.37523E+00   0.24609E+02   0.19307E-06   0.27083E-04   0.73421E+00   0.42584E+02  -0.10325E+01   0.94479E+00
   0.16719E-01   0.57471E-04   0.17715E+23   0.11780E-03   0.47341E+02  -0.39078E+00   0.11318E+01   0.37096E+01   0.00000E+00   0.00000E+00   0.37096E+01   0.41799E+00   0.20984E+02   0.16349E-06   0.22895E-04   0.91558E+00   0.47356E+02  -0.47294E+00   0.90726E+00
   0.16504E-01   0.18678E-03   0.18229E+23   0.12122E-03   0.41193E+02  -0.20098E+01   0.88936E+00   0.37252E+01   0.00000E+00   0.00000E+00   0.37252E+01   0.36335E+00   0.24173E+02   0.19178E-06   0.26914E-04   0.73752E+00   0.41252E+02  -0.27932E+01   0.93751E+00
   0.17192E-01   0.30378E-03   0.18152E+23   0.12071E-03   0.44925E+02   0.31614E-02  -0.13654E+01   0.37336E+01   0.00000E+00   0.00000E+00   0.37336E+01   0.39543E+00   0.16208E+02   0.19589E-06   0.27522E-04   0.72562E+00   0.44946E+02   0.40319E-02   0.93568E+00
   0.17321E-01   0.11494E-03   0.17100E+23   0.11372E-03   0.48829E+02  -0.56867E+00  -0.93059E+00   0.37243E+01   0.00000E+00   0.00000E+00   0.37243E+01   0.43025E+00   0.42477E+02   0.18553E-06   0.26033E-04   0.80598E+00   0.48841E+02  -0.66724E+00   0.87923E+00
   0.17063E-01   0.17241E-03   0.17544E+23   0.11667E-03   0.47095E+02   0.18726E+00  -0.84611E+00   0.37455E+01   0.00000E+00   0.00000E+00   0.37455E+01   0.41376E+00   0.51210E+02   0.18329E-06   0.25793E-04   0.80043E+00   0.47103E+02   0.22782E+00   0.90722E+00
   0.17450E-01   0.35201E-03   0.17852E+23   0.11872E-03   0.48221E+02  -0.12599E+01  -0.39384E+01   0.37564E+01   0.00000E+00   0.00000E+00   0.37564E+01   0.42452E+00   0.23905E+02   0.19690E-06   0.27748E-04   0.71673E+00   0.48398E+02  -0.14966E+01   0.92584E+00
   0.17106E-01   0.40230E-03   0.18316E+23   0.12180E-03   0.44388E+02  -0.20496E+01  -0.10996E+01   0.37593E+01   0.00000E+00   0.00000E+00   0.37593E+01   0.38973E+00   0.40902E+02   0.19270E-06   0.27167E-04   0.73050E+00   0.44449E+02  -0.26437E+01   0.95062E+00
   0.17364E-01   0.47544E-03   0.18003E+23   0.11972E-03   0.47033E+02  -0.15069E+01  -0.26796E+01   0.37843E+01   0.00000E+00   0.00000E+00   0.37843E+01   0.41189E+00   0.16120E+02   0.19722E-06   0.27896E-04   0.71684E+00   0.47133E+02  -0.18351E+01   0.94062E+00
   0.17278E-01   0.43678E-03   0.18261E+23   0.12144E-03   0.46408E+02  -0.68153E+00  -0.26414E+01   0.37605E+01   0.00000E+00   0.00000E+00   0.37605E+01   0.40754E+00   0.24526E+02   0.19292E-06   0.27202E-04   0.72771E+00   0.46488E+02  -0.84136E+00   0.94807E+00
   0.17536E-01   0.43678E-03   0.17892E+23   0.11898E-03   0.47180E+02  -0.13056E+00  -0.20479E+01   0.37656E+01   0.00000E+00   0.00000E+00   0.37656E+01   0.41372E+00   0.32011E+02   0.19658E-06   0.27737E-04   0.71939E+00   0.47225E+02  -0.15855E+00   0.93014E+00
   0.17321E-01   0.30378E-03   0.18365E+23   0.12213E-03   0.46695E+02  -0.21915E+01  -0.28748E+01   0.36943E+01   0.00000E+00   0.00000E+00   0.36943E+01   0.41424E+00   0.81977E+01   0.19310E-06   0.26986E-04   0.73208E+00   0.46835E+02  -0.26870E+01   0.93668E+00
   0.17192E-01   0.21839E-03   0.17841E+23   0.11864E-03   0.44541E+02   0.13733E+00  -0.29945E+01   0.37213E+01   0.00000E+00   0.00000E+00   0.37213E+01   0.39341E+00   0.15826E+02   0.19636E-06   0.27542E-04   0.72171E+00   0.44642E+02   0.17666E+00   0.91660E+00
   0.17364E-01   0.21839E-03   0.17713E+23   0.11779E-03   0.46362E+02  -0.87815E+00  -0.30108E+01   0.37144E+01   0.00000E+00   0.00000E+00   0.37144E+01   0.40989E+00   0.15731E+02   0.19905E-06   0.27893E-04   0.71841E+00   0.46468E+02  -0.10851E+01   0.90832E+00
   0.17751E-01   0.21839E-03   0.17072E+23   0.11353E-03   0.49608E+02   0.19684E-01  -0.43927E+01   0.37480E+01   0.00000E+00   0.00000E+00   0.37480E+01   0.43732E+00   0.75817E+01   0.20424E-06   0.28749E-04   0.70206E+00   0.49802E+02   0.22735E-01   0.88338E+00
   0.17923E-01   0.17241E-03   0.17097E+23   0.11369E-03   0.51097E+02   0.42809E+00  -0.25280E+01   0.37035E+01   0.00000E+00   0.00000E+00   0.37035E+01   0.45195E+00   0.50082E+02   0.18971E-06   0.26545E-04   0.78589E+00   0.51162E+02   0.48000E+00   0.87415E+00
   0.17751E-01   0.38953E-03   0.17778E+23   0.11822E-03   0.48519E+02  -0.58140E+00  -0.31543E+01   0.37524E+01   0.00000E+00   0.00000E+00   0.37524E+01   0.42673E+00   0.23847E+02   0.19855E-06   0.27965E-04   0.71226E+00   0.48625E+02  -0.68654E+00   0.92100E+00
   0.17966E-01   0.35201E-03   0.17752E+23   0.11805E-03   0.49269E+02   0.10535E-01  -0.31272E+01   0.37195E+01   0.00000E+00   0.00000E+00   0.37195E+01   0.43517E+00   0.31674E+02   0.19967E-06   0.28000E-04   0.71565E+00   0.49368E+02   0.12251E-01   0.91162E+00
   0.17622E-01   0.11494E-03   0.17248E+23   0.11470E-03   0.50881E+02   0.28138E+00  -0.14245E+00   0.37323E+01   0.00000E+00   0.00000E+00   0.37323E+01   0.44774E+00   0.50251E+02   0.18020E-06   0.25313E-04   0.82139E+00   0.50882E+02   0.31685E+00   0.88875E+00
   0.17880E-01   0.47544E-03   0.17822E+23   0.11852E-03   0.47900E+02   0.97403E-01  -0.28419E+01   0.37412E+01   0.00000E+00   0.00000E+00   0.37412E+01   0.42174E+00   0.15955E+02   0.19916E-06   0.28009E-04   0.71421E+00   0.47984E+02   0.11651E+00   0.92053E+00
   0.17880E-01   0.21839E-03   0.17417E+23   0.11582E-03   0.49976E+02   0.50338E+00  -0.34663E+01   0.36969E+01   0.00000E+00   0.00000E+00   0.36969E+01   0.44295E+00   0.15455E+02   0.20146E-06   0.28165E-04   0.71884E+00   0.50098E+02   0.57710E+00   0.88897E+00
   0.17665E-01   0.21839E-03   0.17175E+23   0.11421E-03   0.49740E+02  -0.14216E+00  -0.41780E+01   0.37720E+01   0.00000E+00   0.00000E+00   0.37720E+01   0.43692E+00   0.76206E+01   0.20198E-06   0.28522E-04   0.71603E+00   0.49915E+02  -0.16376E+00   0.89440E+00
   0.17536E-01   0.24138E-03   0.17754E+23   0.11806E-03   0.48906E+02   0.37664E-01  -0.28606E+01   0.37110E+01   0.00000E+00   0.00000E+00   0.37110E+01   0.43233E+00   0.31357E+02   0.19901E-06   0.27874E-04   0.72079E+00   0.48990E+02   0.44125E-01   0.90960E+00
   0.17751E-01   0.30378E-03   0.17634E+23   0.11727E-03   0.49630E+02  -0.37527E+00  -0.29311E+01   0.37461E+01   0.00000E+00   0.00000E+00   0.37461E+01   0.43669E+00   0.23595E+02   0.20148E-06   0.28354E-04   0.70852E+00   0.49718E+02  -0.43322E+00   0.91203E+00
   0.17708E-01   0.52203E-03   0.18076E+23   0.12021E-03   0.48492E+02  -0.21063E-01  -0.12407E+01   0.37412E+01   0.00000E+00   0.00000E+00   0.37412E+01   0.42634E+00   0.24292E+02   0.19665E-06   0.27656E-04   0.71889E+00   0.48508E+02  -0.24887E-01   0.93367E+00
   0.18223E-01   0.18678E-03   0.17278E+23   0.11490E-03   0.50867E+02  -0.44636E+00  -0.17465E+01   0.36892E+01   0.00000E+00   0.00000E+00   0.36892E+01   0.45050E+00   0.38227E+02   0.20352E-06   0.28422E-04   0.71514E+00   0.50899E+02  -0.50276E+00   0.88001E+00
   0.18438E-01   0.26820E-03   0.16948E+23   0.11271E-03   0.51176E+02  -0.14316E+00  -0.15492E+01   0.37321E+01   0.00000E+00   0.00000E+00   0.37321E+01   0.45055E+00   0.15090E+02   0.20665E-06   0.29027E-04   0.70663E+00   0.51199E+02  -0.16028E+00   0.87325E+00
   0.18438E-01   0.11494E-03   0.16751E+23   0.11140E-03   0.52650E+02   0.22278E+00  -0.50750E+00   0.37001E+01   0.00000E+00   0.00000E+00   0.37001E+01   0.46534E+00   0.41673E+02   0.18962E-06   0.26521E-04   0.79595E+00   0.52653E+02   0.24244E+00   0.85571E+00
   0.18181E-01   0.35201E-03   0.17740E+23   0.11797E-03   0.49859E+02  -0.36519E+00  -0.35039E+01   0.36843E+01   0.00000E+00   0.00000E+00   0.36843E+01   0.44269E+00   0.39581E+02   0.20128E-06   0.28091E-04   0.71345E+00   0.49983E+02  -0.41965E+00   0.90235E+00
   0.18309E-01   0.52203E-03   0.17836E+23   0.11861E-03   0.48635E+02  -0.91243E+00  -0.26054E+01   0.37431E+01   0.00000E+00   0.00000E+00   0.37431E+01   0.42804E+00   0.23972E+02   0.20026E-06   0.28171E-04   0.71330E+00   0.48713E+02  -0.10748E+01   0.92172E+00
   0.18095E-01   0.52203E-03   0.17800E+23   0.11837E-03   0.49170E+02  -0.10398E+01  -0.20407E+01   0.37667E+01   0.00000E+00   0.00000E+00   0.37667E+01   0.43116E+00   0.31877E+02   0.19805E-06   0.27949E-04   0.71718E+00   0.49223E+02  -0.12115E+01   0.92566E+00
   0.18181E-01   0.11494E-03   0.16815E+23   0.11182E-03   0.51473E+02  -0.84397E+00  -0.24278E+01   0.37137E+01   0.00000E+00   0.00000E+00   0.37137E+01   0.45464E+00   0.34441E+02   0.18450E-06   0.25852E-04   0.81969E+00   0.51537E+02  -0.93936E+00   0.86212E+00
   0.18309E-01   0.35201E-03   0.17491E+23   0.11632E-03   0.50626E+02  -0.74383E+00  -0.16577E+01   0.37138E+01   0.00000E+00   0.00000E+00   0.37138E+01   0.44688E+00   0.23408E+02   0.20371E-06   0.28544E-04   0.70763E+00   0.50658E+02  -0.84177E+00   0.89683E+00
   0.18481E-01   0.38953E-03   0.17571E+23   0.11685E-03   0.51432E+02  -0.26057E+00  -0.13320E+01   0.37357E+01   0.00000E+00   0.00000E+00   0.37357E+01   0.45254E+00   0.15707E+02   0.20084E-06   0.28224E-04   0.71346E+00   0.51450E+02  -0.29027E+00   0.90623E+00
   0.18438E-01   0.47544E-03   0.17416E+23   0.11582E-03   0.50610E+02  -0.95158E+00  -0.29447E+01   0.37418E+01   0.00000E+00   0.00000E+00   0.37418E+01   0.44562E+00   0.78007E+01   0.10000E+11   0.80958E-04   0.00000E+00   0.50705E+02  -0.10772E+01   0.89971E+00
   0.18524E-01   0.47544E-03   0.17444E+23   0.11600E-03   0.50300E+02  -0.77377E+00  -0.42279E+01   0.37367E+01   0.00000E+00   0.00000E+00   0.37367E+01   0.44397E+00   0.78150E+01   0.20198E-06   0.28389E-04   0.70963E+00   0.50483E+02  -0.88132E+00   0.89991E+00
   0.18825E-01   0.24138E-03   0.16986E+23   0.11296E-03   0.53627E+02  -0.38153E+00  -0.25981E+01   0.37273E+01   0.00000E+00   0.00000E+00   0.37273E+01   0.47278E+00   0.29997E+02   0.20755E-06   0.29135E-04   0.70567E+00   0.53692E+02  -0.40762E+00   0.87410E+00
   0.18653E-01   0.38953E-03   0.17668E+23   0.11750E-03   0.52360E+02  -0.12493E+01  -0.26667E+01   0.37054E+01   0.00000E+00   0.00000E+00   0.37054E+01   0.46315E+00   0.15792E+02   0.20011E-06   0.28008E-04   0.71621E+00   0.52443E+02  -0.13668E+01   0.90385E+00
   0.18696E-01   0.17241E-03   0.16813E+23   0.11181E-03   0.53152E+02  -0.24916E+00  -0.12878E+01   0.37390E+01   0.00000E+00   0.00000E+00   0.37390E+01   0.46745E+00   0.42485E+02   0.19680E-06   0.27669E-04   0.75800E+00   0.53169E+02  -0.26858E+00   0.86790E+00
   0.18911E-01   0.43678E-03   0.17629E+23   0.11723E-03   0.51959E+02  -0.69589E+00  -0.12149E+01   0.36977E+01   0.00000E+00   0.00000E+00   0.36977E+01   0.45952E+00   0.31538E+02   0.20132E-06   0.28148E-04   0.71811E+00   0.51978E+02  -0.76731E+00   0.89997E+00
   0.18954E-01   0.18678E-03   0.16593E+23   0.11035E-03   0.55122E+02  -0.86434E+00  -0.27963E+01   0.36735E+01   0.00000E+00   0.00000E+00   0.36735E+01   0.48961E+00   0.14644E+02   0.21123E-06   0.29436E-04   0.70659E+00   0.55200E+02  -0.89835E+00   0.84154E+00
   0.18610E-01   0.26820E-03   0.17155E+23   0.11408E-03   0.51471E+02  -0.77927E+00  -0.21055E+01   0.37307E+01   0.00000E+00   0.00000E+00   0.37307E+01   0.45345E+00   0.38198E+02   0.20479E-06   0.28760E-04   0.70862E+00   0.51520E+02  -0.86740E+00   0.88360E+00
   0.18997E-01   0.30378E-03   0.17403E+23   0.11573E-03   0.54146E+02  -0.13228E+01  -0.24453E+01   0.36961E+01   0.00000E+00   0.00000E+00   0.36961E+01   0.47942E+00   0.15516E+02   0.20406E-06   0.28525E-04   0.70372E+00   0.54217E+02  -0.13995E+01   0.88805E+00
   0.18911E-01   0.57471E-04   0.15985E+23   0.10630E-03   0.55137E+02   0.22518E-01   0.12415E+01   0.36722E+01   0.00000E+00   0.00000E+00   0.36722E+01   0.48926E+00   0.25250E+02   0.18052E-06   0.25153E-04   0.86540E+00   0.55151E+02   0.23399E-01   0.81042E+00
   0.18782E-01   0.40230E-03   0.17497E+23   0.11635E-03   0.52753E+02  -0.73250E+00  -0.10380E+01   0.36850E+01   0.00000E+00   0.00000E+00   0.36850E+01   0.46731E+00   0.23392E+02   0.20344E-06   0.28396E-04   0.71457E+00   0.52768E+02  -0.79553E+00   0.89015E+00
   0.18653E-01   0.47544E-03   0.17683E+23   0.11759E-03   0.51659E+02  -0.19764E+01  -0.29612E+01   0.37023E+01   0.00000E+00   0.00000E+00   0.37023E+01   0.45751E+00   0.15839E+02   0.20033E-06   0.28027E-04   0.71494E+00   0.51782E+02  -0.21910E+01   0.90382E+00
   0.19341E-01   0.32020E-03   0.17350E+23   0.11537E-03   0.54358E+02  -0.10094E+01  -0.73032E+00   0.36583E+01   0.00000E+00   0.00000E+00   0.36583E+01   0.48327E+00   0.30890E+02   0.20581E-06   0.28622E-04   0.71122E+00   0.54372E+02  -0.10638E+01   0.87626E+00
   0.19513E-01   0.26820E-03   0.17004E+23   0.11308E-03   0.54933E+02  -0.17515E+00  -0.16170E+01   0.36406E+01   0.00000E+00   0.00000E+00   0.36406E+01   0.48966E+00   0.22716E+02   0.20924E-06   0.29029E-04   0.70743E+00   0.54957E+02  -0.18268E+00   0.85465E+00
   0.19384E-01   0.17241E-03   0.16772E+23   0.11153E-03   0.54329E+02  -0.13715E+01  -0.54548E+00   0.36427E+01   0.00000E+00   0.00000E+00   0.36427E+01   0.48409E+00   0.42472E+02   0.20046E-06   0.27818E-04   0.75214E+00   0.54349E+02  -0.14461E+01   0.84348E+00
   0.19169E-01   0.11494E-03   0.16897E+23   0.11237E-03   0.51725E+02   0.35979E+00  -0.13228E+01   0.36413E+01   0.00000E+00   0.00000E+00   0.36413E+01   0.46098E+00   0.28148E+02   0.18914E-06   0.26242E-04   0.79998E+00   0.51743E+02   0.39853E+00   0.84945E+00
   0.19126E-01   0.18678E-03   0.16949E+23   0.11271E-03   0.55010E+02   0.53831E+00  -0.27771E+01   0.36532E+01   0.00000E+00   0.00000E+00   0.36532E+01   0.48993E+00   0.29955E+02   0.20725E-06   0.28802E-04   0.71168E+00   0.55083E+02   0.56065E+00   0.85483E+00
   0.19169E-01   0.30378E-03   0.16938E+23   0.11264E-03   0.54497E+02   0.14635E+01  -0.21939E+01   0.37041E+01   0.00000E+00   0.00000E+00   0.37041E+01   0.48194E+00   0.15115E+02   0.20898E-06   0.29245E-04   0.70561E+00   0.54561E+02   0.15383E+01   0.86620E+00
   0.19427E-01   0.47544E-03   0.17416E+23   0.11581E-03   0.54178E+02  -0.61263E+00   0.20239E+01   0.37002E+01   0.00000E+00   0.00000E+00   0.37002E+01   0.47918E+00   0.15596E+02   0.20593E-06   0.28802E-04   0.70752E+00   0.54220E+02  -0.64785E+00   0.88968E+00
   0.19169E-01   0.52203E-03   0.17365E+23   0.11547E-03   0.52226E+02  -0.41708E+00   0.77288E+00   0.37206E+01   0.00000E+00   0.00000E+00   0.37206E+01   0.46036E+00   0.31116E+02   0.20418E-06   0.28636E-04   0.70850E+00   0.52233E+02  -0.45756E+00   0.89196E+00
   0.19126E-01   0.43678E-03   0.17431E+23   0.11591E-03   0.53051E+02  -0.90613E-01   0.17896E+00   0.36898E+01   0.00000E+00   0.00000E+00   0.36898E+01   0.46951E+00   0.31167E+02   0.20254E-06   0.28288E-04   0.71538E+00   0.53051E+02  -0.97864E-01   0.88795E+00
   0.19556E-01   0.57471E-04   0.15940E+23   0.10600E-03   0.56203E+02   0.88576E+00  -0.16722E+01   0.36817E+01   0.00000E+00   0.00000E+00   0.36817E+01   0.49824E+00   0.18972E+02   0.17877E-06   0.24941E-04   0.87589E+00   0.56235E+02   0.90290E+00   0.81022E+00
   0.19470E-01   0.38953E-03   0.17172E+23   0.11419E-03   0.54606E+02  -0.46161E+00   0.11666E+00   0.36690E+01   0.00000E+00   0.00000E+00   0.36690E+01   0.48466E+00   0.23033E+02   0.20801E-06   0.28970E-04   0.70247E+00   0.54608E+02  -0.48434E+00   0.86982E+00
   0.19857E-01   0.32020E-03   0.16857E+23   0.11210E-03   0.55469E+02   0.44864E-01  -0.69237E+00   0.36823E+01   0.00000E+00   0.00000E+00   0.36823E+01   0.49144E+00   0.30045E+02   0.21006E-06   0.29309E-04   0.69860E+00   0.55473E+02   0.46342E-01   0.85697E+00
   0.19728E-01   0.17241E-03   0.16672E+23   0.11087E-03   0.55839E+02  -0.12968E+00  -0.21041E+00   0.37028E+01   0.00000E+00   0.00000E+00   0.37028E+01   0.49332E+00   0.21021E+02   0.20076E-06   0.28090E-04   0.75392E+00   0.55840E+02  -0.13306E+00   0.85228E+00
   0.19943E-01   0.21839E-03   0.16599E+23   0.11038E-03   0.57573E+02   0.26606E+00  -0.71202E+00   0.36344E+01   0.00000E+00   0.00000E+00   0.36344E+01   0.51344E+00   0.14742E+02   0.21336E-06   0.29575E-04   0.69809E+00   0.57578E+02   0.26478E+00   0.83288E+00
   0.19986E-01   0.43678E-03   0.16974E+23   0.11288E-03   0.54061E+02   0.31215E-01   0.75433E+00   0.36969E+01   0.00000E+00   0.00000E+00   0.36969E+01   0.47803E+00   0.45538E+02   0.20930E-06   0.29260E-04   0.69635E+00   0.54066E+02   0.33083E-01   0.86637E+00
   0.19599E-01   0.18678E-03   0.16807E+23   0.11177E-03   0.55652E+02   0.38900E+00  -0.11138E+00   0.36212E+01   0.00000E+00   0.00000E+00   0.36212E+01   0.49718E+00   0.29608E+02   0.20840E-06   0.28835E-04   0.71459E+00   0.55653E+02   0.40049E+00   0.84025E+00
   0.20029E-01   0.30378E-03   0.16807E+23   0.11177E-03   0.54977E+02  -0.33851E-01  -0.95730E+00   0.36507E+01   0.00000E+00   0.00000E+00   0.36507E+01   0.48922E+00   0.15000E+02   0.21309E-06   0.29604E-04   0.70227E+00   0.54985E+02  -0.35279E-01   0.84713E+00
   0.19685E-01   0.35201E-03   0.16974E+23   0.11287E-03   0.54951E+02   0.26437E-01  -0.92626E+00   0.36859E+01   0.00000E+00   0.00000E+00   0.36859E+01   0.48666E+00   0.22716E+02   0.21010E-06   0.29328E-04   0.69451E+00   0.54959E+02   0.27564E-01   0.86374E+00
   0.19900E-01   0.11494E-03   0.16185E+23   0.10763E-03   0.57099E+02  -0.62960E+00   0.10104E+01   0.36293E+01   0.00000E+00   0.00000E+00   0.36293E+01   0.50964E+00   0.40530E+02   0.19645E-06   0.27212E-04   0.78288E+00   0.57111E+02  -0.63175E+00   0.81094E+00
   0.19642E-01   0.43678E-03   0.17126E+23   0.11389E-03   0.54723E+02   0.36270E+00   0.80833E+00   0.37185E+01   0.00000E+00   0.00000E+00   0.37185E+01   0.48250E+00   0.30657E+02   0.20788E-06   0.29147E-04   0.69679E+00   0.54730E+02   0.37975E+00   0.87919E+00
   0.20072E-01   0.11494E-03   0.16387E+23   0.10898E-03   0.57493E+02  -0.74076E+00   0.22729E+00   0.36197E+01   0.00000E+00   0.00000E+00   0.36197E+01   0.51377E+00   0.13731E+02   0.19580E-06   0.27085E-04   0.77989E+00   0.57498E+02  -0.73819E+00   0.81892E+00
   0.20458E-01   0.35201E-03   0.16825E+23   0.11189E-03   0.56045E+02  -0.51959E+00  -0.15747E+00   0.36404E+01   0.00000E+00   0.00000E+00   0.36404E+01   0.49938E+00   0.22560E+02   0.21384E-06   0.29666E-04   0.69018E+00   0.56048E+02  -0.53117E+00   0.84563E+00
   0.20415E-01   0.11494E-03   0.16524E+23   0.10989E-03   0.56513E+02  -0.11562E+00  -0.16432E+01   0.35884E+01   0.00000E+00   0.00000E+00   0.35884E+01   0.50738E+00   0.41182E+02   0.19589E-06   0.26980E-04   0.78583E+00   0.56537E+02  -0.11722E+00   0.81863E+00
   0.20201E-01   0.30378E-03   0.16756E+23   0.11143E-03   0.54833E+02   0.13478E+01  -0.72386E+00   0.36471E+01   0.00000E+00   0.00000E+00   0.36471E+01   0.48831E+00   0.14942E+02   0.21375E-06   0.29681E-04   0.68947E+00   0.54855E+02   0.14080E+01   0.84372E+00
   0.20201E-01   0.11494E-03   0.16601E+23   0.11039E-03   0.56951E+02  -0.50979E+00  -0.96021E-01   0.35702E+01   0.00000E+00   0.00000E+00   0.35702E+01   0.51242E+00   0.27592E+02   0.19680E-06   0.27037E-04   0.78614E+00   0.56954E+02  -0.51286E+00   0.81825E+00