VARIABLES = "X","Y","ND","D","U","V","W","TTR","TRT","TVB","TOV","MA","MC","MCT","MFP","SOF","FSP","ANG","P"
 ZONE I=        3166  F=POINT
   0.15086E-01   0.37356E-03   0.82722E+22   0.55010E-04   0.25655E+02   0.15381E+00   0.34078E+00   0.39061E+01   0.00000E+00   0.00000E+00   0.39061E+01   0.22070E+00   0.29448E+02   0.37957E-06   0.54546E-04   0.53795E+00   0.25658E+02   0.34350E+00   0.44611E+00
   0.15387E-01   0.22989E-03   0.82206E+22   0.54667E-04   0.27847E+02  -0.21761E+00  -0.79766E+00   0.38389E+01   0.00000E+00   0.00000E+00   0.38389E+01   0.24172E+00   0.39041E+02   0.41623E-06   0.59297E-04   0.48885E+00   0.27859E+02  -0.44773E+00   0.43570E+00
   0.15344E-01   0.43678E-03   0.83948E+22   0.55826E-04   0.26803E+02  -0.32183E+00  -0.73614E+00   0.38849E+01   0.00000E+00   0.00000E+00   0.38849E+01   0.23128E+00   0.33785E+02   0.41309E-06   0.59200E-04   0.47554E+00   0.26815E+02  -0.68793E+00   0.45026E+00
   0.15129E-01   0.17241E-03   0.81287E+22   0.54056E-04   0.27216E+02   0.72731E+00  -0.75838E+00   0.38339E+01   0.00000E+00   0.00000E+00   0.38339E+01   0.23647E+00   0.27349E+02   0.30290E-06   0.43123E-04   0.69844E+00   0.27236E+02   0.15308E+01   0.43026E+00
   0.15645E-01   0.37356E-03   0.82623E+22   0.54945E-04   0.28354E+02  -0.69250E+00  -0.85698E-03   0.38527E+01   0.00000E+00   0.00000E+00   0.38527E+01   0.24564E+00   0.36795E+02   0.41011E-06   0.58531E-04   0.48556E+00   0.28362E+02  -0.13991E+01   0.43948E+00
   0.15860E-01   0.40230E-03   0.83475E+22   0.55511E-04   0.28667E+02  -0.71922E+00  -0.94862E+00   0.38645E+01   0.00000E+00   0.00000E+00   0.38645E+01   0.24812E+00   0.29817E+02   0.40888E-06   0.58443E-04   0.48577E+00   0.28692E+02  -0.14372E+01   0.44536E+00
   0.15645E-01   0.11494E-03   0.80443E+22   0.53495E-04   0.29098E+02  -0.65924E-01   0.57387E+00   0.38153E+01   0.00000E+00   0.00000E+00   0.38153E+01   0.25330E+00   0.26796E+02   0.36506E-06   0.51846E-04   0.57675E+00   0.29104E+02  -0.12981E+00   0.42373E+00
   0.15860E-01   0.17241E-03   0.81648E+22   0.54296E-04   0.29572E+02  -0.16591E+00   0.95564E-01   0.37995E+01   0.00000E+00   0.00000E+00   0.37995E+01   0.25791E+00   0.10390E+02   0.34262E-06   0.48558E-04   0.61153E+00   0.29572E+02  -0.32146E+00   0.42829E+00
   0.15946E-01   0.17241E-03   0.81314E+22   0.54074E-04   0.30769E+02  -0.21812E+00   0.25103E+00   0.38301E+01   0.00000E+00   0.00000E+00   0.38301E+01   0.26729E+00   0.10357E+02   0.33628E-06   0.47852E-04   0.62710E+00   0.30770E+02  -0.40617E+00   0.42998E+00
   0.16332E-01   0.35201E-03   0.81698E+22   0.54329E-04   0.33037E+02  -0.11563E+01  -0.42162E+00   0.38540E+01   0.00000E+00   0.00000E+00   0.38540E+01   0.28628E+00   0.29151E+02   0.41617E-06   0.59405E-04   0.47916E+00   0.33060E+02  -0.20045E+01   0.43471E+00
   0.16074E-01   0.17241E-03   0.80578E+22   0.53585E-04   0.31729E+02  -0.38802E+00  -0.15351E+00   0.38105E+01   0.00000E+00   0.00000E+00   0.38105E+01   0.27635E+00   0.20524E+02   0.37139E-06   0.52713E-04   0.55378E+00   0.31732E+02  -0.70064E+00   0.42391E+00
   0.16289E-01   0.11494E-03   0.78972E+22   0.52516E-04   0.32814E+02  -0.28397E+00  -0.89287E+00   0.38071E+01   0.00000E+00   0.00000E+00   0.38071E+01   0.28601E+00   0.19630E+02   0.36003E-06   0.51077E-04   0.57287E+00   0.32827E+02  -0.49583E+00   0.41509E+00
   0.16074E-01   0.35201E-03   0.81848E+22   0.54429E-04   0.30640E+02  -0.14083E+01  -0.87669E+00   0.38669E+01   0.00000E+00   0.00000E+00   0.38669E+01   0.26528E+00   0.14618E+02   0.42134E-06   0.60243E-04   0.47957E+00   0.30685E+02  -0.26317E+01   0.43696E+00
   0.16160E-01   0.52203E-03   0.83038E+22   0.55220E-04   0.31191E+02  -0.23902E+01  -0.10451E+01   0.38873E+01   0.00000E+00   0.00000E+00   0.38873E+01   0.26988E+00   0.22317E+02   0.41544E-06   0.59556E-04   0.47917E+00   0.31299E+02  -0.43822E+01   0.44565E+00
   0.16332E-01   0.21839E-03   0.80314E+22   0.53409E-04   0.33454E+02  -0.63764E+00   0.38510E+00   0.38447E+01   0.00000E+00   0.00000E+00   0.38447E+01   0.29012E+00   0.14273E+02   0.42924E-06   0.61197E-04   0.47459E+00   0.33462E+02  -0.10920E+01   0.42631E+00
   0.16848E-01   0.22989E-03   0.79380E+22   0.52787E-04   0.35917E+02   0.55207E+00  -0.39738E+00   0.37972E+01   0.00000E+00   0.00000E+00   0.37972E+01   0.31340E+00   0.37208E+02   0.40852E-06   0.57882E-04   0.51068E+00   0.35923E+02   0.88062E+00   0.41615E+00
   0.16848E-01   0.35201E-03   0.80877E+22   0.53783E-04   0.35337E+02   0.19067E+00  -0.47771E+00   0.37926E+01   0.00000E+00   0.00000E+00   0.37926E+01   0.30850E+00   0.10838E+02   0.42325E-06   0.59932E-04   0.47299E+00   0.35341E+02   0.30916E+00   0.42347E+00
   0.16633E-01   0.40230E-03   0.81840E+22   0.54423E-04   0.34789E+02  -0.11241E+01  -0.12312E+00   0.38329E+01   0.00000E+00   0.00000E+00   0.38329E+01   0.30225E+00   0.29229E+02   0.42046E-06   0.59852E-04   0.47710E+00   0.34808E+02  -0.18508E+01   0.43307E+00
   0.16590E-01   0.17241E-03   0.79780E+22   0.53054E-04   0.34389E+02  -0.36136E+00  -0.78597E+00   0.37709E+01   0.00000E+00   0.00000E+00   0.37709E+01   0.30115E+00   0.33639E+02   0.36190E-06   0.51098E-04   0.58350E+00   0.34400E+02  -0.60205E+00   0.41534E+00
   0.16805E-01   0.47544E-03   0.82266E+22   0.54707E-04   0.34353E+02  -0.29342E+00  -0.42508E+00   0.37974E+01   0.00000E+00   0.00000E+00   0.37974E+01   0.29972E+00   0.11051E+02   0.42240E-06   0.59850E-04   0.47797E+00   0.34357E+02  -0.48937E+00   0.43130E+00
   0.17235E-01   0.32020E-03   0.79957E+22   0.53171E-04   0.36664E+02  -0.63430E-01  -0.68977E+00   0.37847E+01   0.00000E+00   0.00000E+00   0.37847E+01   0.32045E+00   0.21344E+02   0.42821E-06   0.60571E-04   0.47756E+00   0.36671E+02  -0.99123E-01   0.41778E+00
   0.17407E-01   0.24138E-03   0.78838E+22   0.52428E-04   0.36850E+02  -0.70478E+00  -0.31797E+00   0.37986E+01   0.00000E+00   0.00000E+00   0.37986E+01   0.32150E+00   0.17471E+02   0.41967E-06   0.59471E-04   0.48736E+00   0.36858E+02  -0.10957E+01   0.41345E+00
   0.17407E-01   0.43678E-03   0.80928E+22   0.53817E-04   0.37353E+02  -0.20866E+00   0.35890E+00   0.38059E+01   0.00000E+00   0.00000E+00   0.38059E+01   0.32552E+00   0.21714E+02   0.41851E-06   0.59364E-04   0.47735E+00   0.37356E+02  -0.32005E+00   0.42523E+00
   0.17192E-01   0.11494E-03   0.78092E+22   0.51931E-04   0.35662E+02  -0.11637E+00  -0.51390E+00   0.37650E+01   0.00000E+00   0.00000E+00   0.37650E+01   0.31248E+00   0.26074E+02   0.39208E-06   0.55316E-04   0.54649E+00   0.35665E+02  -0.18697E+00   0.40592E+00
   0.17063E-01   0.37356E-03   0.81481E+22   0.54185E-04   0.36281E+02  -0.32435E+00  -0.24660E+00   0.38150E+01   0.00000E+00   0.00000E+00   0.38150E+01   0.31580E+00   0.29072E+02   0.40476E-06   0.57484E-04   0.50530E+00   0.36283E+02  -0.51220E+00   0.42916E+00
   0.17751E-01   0.24138E-03   0.78221E+22   0.52017E-04   0.38383E+02  -0.26526E+00  -0.11224E+01   0.38021E+01   0.00000E+00   0.00000E+00   0.38021E+01   0.33479E+00   0.17345E+02   0.44276E-06   0.62774E-04   0.46443E+00   0.38401E+02  -0.39595E+00   0.41060E+00
   0.17923E-01   0.32020E-03   0.78732E+22   0.52356E-04   0.39207E+02  -0.58730E+00  -0.39425E+00   0.37942E+01   0.00000E+00   0.00000E+00   0.37942E+01   0.34223E+00   0.28015E+02   0.43450E-06   0.61539E-04   0.47636E+00   0.39213E+02  -0.85820E+00   0.41242E+00
   0.17966E-01   0.11494E-03   0.75620E+22   0.50287E-04   0.40218E+02  -0.88599E-02  -0.12896E+00   0.37461E+01   0.00000E+00   0.00000E+00   0.37461E+01   0.35325E+00   0.25156E+02   0.36819E-06   0.51815E-04   0.58444E+00   0.40218E+02  -0.12622E-01   0.39110E+00
   0.17665E-01   0.48589E-03   0.80079E+22   0.53252E-04   0.37909E+02  -0.74808E+00  -0.42547E+00   0.38566E+01   0.00000E+00   0.00000E+00   0.38566E+01   0.32825E+00   0.28661E+02   0.42984E-06   0.61377E-04   0.47396E+00   0.37919E+02  -0.11305E+01   0.42637E+00
   0.17579E-01   0.11494E-03   0.76644E+22   0.50968E-04   0.38286E+02  -0.58023E+00  -0.18054E+00   0.37691E+01   0.00000E+00   0.00000E+00   0.37691E+01   0.33530E+00   0.25178E+02   0.38636E-06   0.54538E-04   0.54758E+00   0.38291E+02  -0.86826E+00   0.39882E+00
   0.17579E-01   0.26820E-03   0.78863E+22   0.52444E-04   0.37366E+02  -0.71806E+00  -0.61623E+00   0.38142E+01   0.00000E+00   0.00000E+00   0.38142E+01   0.32537E+00   0.14056E+02   0.43139E-06   0.61258E-04   0.47657E+00   0.37378E+02  -0.11009E+01   0.41528E+00
   0.18223E-01   0.24138E-03   0.76287E+22   0.50731E-04   0.41639E+02  -0.52089E+00  -0.16434E+00   0.38179E+01   0.00000E+00   0.00000E+00   0.38179E+01   0.36231E+00   0.23661E+02   0.44531E-06   0.63265E-04   0.46644E+00   0.41643E+02  -0.71671E+00   0.40210E+00
   0.18481E-01   0.17241E-03   0.74604E+22   0.49612E-04   0.41628E+02  -0.24757E+00   0.35803E+00   0.38036E+01   0.00000E+00   0.00000E+00   0.38036E+01   0.36287E+00   0.18995E+02   0.39051E-06   0.55376E-04   0.55167E+00   0.41630E+02  -0.34075E+00   0.39177E+00
   0.18438E-01   0.40230E-03   0.77799E+22   0.51737E-04   0.40775E+02   0.20600E+00  -0.59529E-01   0.38195E+01   0.00000E+00   0.00000E+00   0.38195E+01   0.35469E+00   0.27775E+02   0.44435E-06   0.63143E-04   0.46344E+00   0.40775E+02   0.28946E+00   0.41025E+00
   0.18181E-01   0.40230E-03   0.78449E+22   0.52168E-04   0.40566E+02  -0.37877E+00  -0.69711E+00   0.38118E+01   0.00000E+00   0.00000E+00   0.38118E+01   0.35329E+00   0.28037E+02   0.42659E-06   0.60558E-04   0.47899E+00   0.40574E+02  -0.53496E+00   0.41285E+00
   0.18266E-01   0.11494E-03   0.74317E+22   0.49421E-04   0.40630E+02   0.41451E+00   0.32894E+00   0.38000E+01   0.00000E+00   0.00000E+00   0.38000E+01   0.35436E+00   0.15333E+02   0.40098E-06   0.56835E-04   0.53898E+00   0.40634E+02   0.58451E+00   0.38989E+00
   0.18825E-01   0.22989E-03   0.74454E+22   0.49512E-04   0.41987E+02  -0.57702E+00  -0.15232E+00   0.38154E+01   0.00000E+00   0.00000E+00   0.38154E+01   0.36547E+00   0.19318E+02   0.44413E-06   0.63077E-04   0.48366E+00   0.41992E+02  -0.78735E+00   0.39219E+00
   0.18696E-01   0.17241E-03   0.73869E+22   0.49123E-04   0.41259E+02   0.44406E-01  -0.89193E+00   0.38121E+01   0.00000E+00   0.00000E+00   0.38121E+01   0.35932E+00   0.24920E+02   0.41504E-06   0.58920E-04   0.51797E+00   0.41268E+02   0.61666E-01   0.38877E+00
   0.18653E-01   0.40230E-03   0.76848E+22   0.51104E-04   0.41482E+02   0.13265E+00   0.26170E+00   0.38277E+01   0.00000E+00   0.00000E+00   0.38277E+01   0.36045E+00   0.20558E+02   0.44138E-06   0.62788E-04   0.46842E+00   0.41483E+02   0.18322E+00   0.40611E+00
   0.18868E-01   0.43678E-03   0.76746E+22   0.51036E-04   0.40563E+02  -0.17426E+00   0.30650E+00   0.38351E+01   0.00000E+00   0.00000E+00   0.38351E+01   0.35214E+00   0.20597E+02   0.44643E-06   0.63568E-04   0.46404E+00   0.40565E+02  -0.24614E+00   0.40635E+00
   0.18954E-01   0.22989E-03   0.74772E+22   0.49724E-04   0.41682E+02  -0.46437E+00   0.44684E+00   0.38114E+01   0.00000E+00   0.00000E+00   0.38114E+01   0.36300E+00   0.12729E+02   0.42152E-06   0.59835E-04   0.50402E+00   0.41687E+02  -0.63830E+00   0.39345E+00
   0.19341E-01   0.22989E-03   0.75016E+22   0.49885E-04   0.43029E+02  -0.54039E+00  -0.15207E+01   0.37657E+01   0.00000E+00   0.00000E+00   0.37657E+01   0.37722E+00   0.22391E+02   0.42291E-06   0.59672E-04   0.51509E+00   0.43059E+02  -0.71952E+00   0.39000E+00
   0.19556E-01   0.22989E-03   0.75000E+22   0.49875E-04   0.43152E+02   0.11946E+00   0.32580E+00   0.37414E+01   0.00000E+00   0.00000E+00   0.37414E+01   0.37928E+00   0.28898E+02   0.40969E-06   0.57619E-04   0.52220E+00   0.43154E+02   0.15861E+00   0.38740E+00
   0.19384E-01   0.40230E-03   0.76911E+22   0.51146E-04   0.41137E+02  -0.70665E+00  -0.10017E+01   0.37828E+01   0.00000E+00   0.00000E+00   0.37828E+01   0.35973E+00   0.24078E+02   0.44914E-06   0.63516E-04   0.46904E+00   0.41156E+02  -0.98412E+00   0.40167E+00
   0.19126E-01   0.45402E-03   0.77519E+22   0.51550E-04   0.40260E+02  -0.52336E+00  -0.67480E+00   0.37996E+01   0.00000E+00   0.00000E+00   0.37996E+01   0.35120E+00   0.27692E+02   0.43331E-06   0.61413E-04   0.48012E+00   0.40269E+02  -0.74478E+00   0.40665E+00
   0.19126E-01   0.22989E-03   0.75060E+22   0.49915E-04   0.42273E+02  -0.53988E+00  -0.74153E+00   0.37799E+01   0.00000E+00   0.00000E+00   0.37799E+01   0.36973E+00   0.35168E+02   0.38636E-06   0.54617E-04   0.57051E+00   0.42283E+02  -0.73170E+00   0.39170E+00
   0.19814E-01   0.26820E-03   0.74439E+22   0.49502E-04   0.43582E+02   0.54763E+00  -0.40450E+00   0.37623E+01   0.00000E+00   0.00000E+00   0.37623E+01   0.38202E+00   0.16564E+02   0.46154E-06   0.65092E-04   0.45859E+00   0.43588E+02   0.71990E+00   0.38665E+00
   0.20072E-01   0.22989E-03   0.73165E+22   0.48655E-04   0.44034E+02   0.40193E+00  -0.24960E+00   0.37684E+01   0.00000E+00   0.00000E+00   0.37684E+01   0.38564E+00   0.25516E+02   0.45505E-06   0.64229E-04   0.46209E+00   0.44036E+02   0.52297E+00   0.38065E+00
   0.19685E-01   0.45402E-03   0.75900E+22   0.50474E-04   0.41955E+02   0.16914E-01  -0.54319E+00   0.38075E+01   0.00000E+00   0.00000E+00   0.38075E+01   0.36556E+00   0.37289E+02   0.44497E-06   0.63132E-04   0.46639E+00   0.41959E+02   0.23098E-01   0.39898E+00
   0.20029E-01   0.43678E-03   0.74649E+22   0.49642E-04   0.41747E+02   0.33608E+00  -0.46529E+00   0.38159E+01   0.00000E+00   0.00000E+00   0.38159E+01   0.36335E+00   0.26714E+02   0.45823E-06   0.65084E-04   0.45715E+00   0.41751E+02   0.46125E+00   0.39327E+00
   0.19771E-01   0.11494E-03   0.73078E+22   0.48597E-04   0.44580E+02  -0.64687E-01  -0.56339E+00   0.37264E+01   0.00000E+00   0.00000E+00   0.37264E+01   0.39263E+00   0.24414E+02   0.38271E-06   0.53716E-04   0.56761E+00   0.44584E+02  -0.83138E-01   0.37596E+00
   0.20287E-01   0.37356E-03   0.73430E+22   0.48831E-04   0.43062E+02   0.61370E-01  -0.14180E+00   0.38179E+01   0.00000E+00   0.00000E+00   0.38179E+01   0.37466E+00   0.39186E+02   0.46632E-06   0.66250E-04   0.45406E+00   0.43062E+02   0.81655E-01   0.38705E+00
   0.20501E-01   0.17241E-03   0.72261E+22   0.48054E-04   0.44149E+02  -0.55254E+00  -0.81386E+00   0.37639E+01   0.00000E+00   0.00000E+00   0.37639E+01   0.38695E+00   0.24436E+02   0.42784E-06   0.60352E-04   0.51477E+00   0.44160E+02  -0.71704E+00   0.37550E+00
   0.20287E-01   0.13410E-03   0.71366E+22   0.47459E-04   0.43426E+02  -0.53303E+00   0.11213E+01   0.37668E+01   0.00000E+00   0.00000E+00   0.37668E+01   0.38054E+00   0.62677E+01   0.10000E+11   0.19757E-03   0.00000E+00   0.43444E+02  -0.70323E+00   0.37113E+00
   0.20544E-01   0.40230E-03   0.73894E+22   0.49140E-04   0.42741E+02  -0.67159E+00  -0.39149E+00   0.38103E+01   0.00000E+00   0.00000E+00   0.38103E+01   0.37230E+00   0.19802E+02   0.46513E-06   0.66016E-04   0.45478E+00   0.42748E+02  -0.90022E+00   0.38872E+00
   0.20201E-01   0.11494E-03   0.70553E+22   0.46917E-04   0.43844E+02  -0.17357E+00  -0.10102E+01   0.37412E+01   0.00000E+00   0.00000E+00   0.37412E+01   0.38546E+00   0.14236E+02   0.44360E-06   0.62386E-04   0.50727E+00   0.43856E+02  -0.22682E+00   0.36441E+00
   0.20974E-01   0.22989E-03   0.71863E+22   0.47789E-04   0.45809E+02   0.11176E+00  -0.69351E+00   0.37525E+01   0.00000E+00   0.00000E+00   0.37525E+01   0.40207E+00   0.27853E+02   0.45920E-06   0.64678E-04   0.47175E+00   0.45815E+02   0.13979E+00   0.37229E+00
   0.20974E-01   0.40230E-03   0.72385E+22   0.48136E-04   0.44296E+02  -0.10595E+00  -0.45863E+00   0.37753E+01   0.00000E+00   0.00000E+00   0.37753E+01   0.38759E+00   0.29094E+02   0.48731E-06   0.68845E-04   0.44448E+00   0.44299E+02  -0.13704E+00   0.37728E+00
   0.20759E-01   0.37356E-03   0.73278E+22   0.48730E-04   0.43385E+02  -0.21542E+00  -0.79900E+00   0.37859E+01   0.00000E+00   0.00000E+00   0.37859E+01   0.37913E+00   0.32621E+02   0.46605E-06   0.65934E-04   0.46503E+00   0.43393E+02  -0.28449E+00   0.38301E+00
   0.20759E-01   0.11494E-03   0.71867E+22   0.47791E-04   0.46166E+02  -0.77287E+00  -0.61197E+00   0.37348E+01   0.00000E+00   0.00000E+00   0.37348E+01   0.40620E+00   0.17977E+02   0.44595E-06   0.62664E-04   0.49740E+00   0.46176E+02  -0.95911E+00   0.37057E+00
   0.21490E-01   0.32020E-03   0.70897E+22   0.47147E-04   0.45379E+02  -0.31653E+00  -0.27594E-01   0.37591E+01   0.00000E+00   0.00000E+00   0.37591E+01   0.39790E+00   0.25267E+02   0.48218E-06   0.67975E-04   0.44828E+00   0.45381E+02  -0.39965E+00   0.36794E+00
   0.21275E-01   0.45402E-03   0.72585E+22   0.48269E-04   0.44296E+02   0.24548E+00  -0.89047E-01   0.37737E+01   0.00000E+00   0.00000E+00   0.37737E+01   0.38765E+00   0.29201E+02   0.47325E-06   0.66845E-04   0.45395E+00   0.44296E+02   0.31753E+00   0.37817E+00
   0.21232E-01   0.17241E-03   0.70841E+22   0.47109E-04   0.45762E+02   0.95005E-01  -0.12819E+01   0.37302E+01   0.00000E+00   0.00000E+00   0.37302E+01   0.40296E+00   0.29881E+02   0.41432E-06   0.58182E-04   0.54477E+00   0.45780E+02   0.11895E+00   0.36482E+00
   0.21533E-01   0.17241E-03   0.69316E+22   0.46095E-04   0.47269E+02   0.22141E+00  -0.47219E+00   0.37564E+01   0.00000E+00   0.00000E+00   0.37564E+01   0.41464E+00   0.23400E+02   0.43775E-06   0.61688E-04   0.51789E+00   0.47272E+02   0.26838E+00   0.35948E+00
   0.21619E-01   0.48589E-03   0.71776E+22   0.47731E-04   0.44195E+02   0.51845E-01  -0.33345E+00   0.38001E+01   0.00000E+00   0.00000E+00   0.38001E+01   0.38543E+00   0.25693E+02   0.48717E-06   0.69051E-04   0.44547E+00   0.44197E+02   0.67212E-01   0.37657E+00
   0.21834E-01   0.32020E-03   0.70386E+22   0.46806E-04   0.45582E+02   0.55728E-01  -0.64436E+00   0.37694E+01   0.00000E+00   0.00000E+00   0.37694E+01   0.39917E+00   0.25055E+02   0.48056E-06   0.67839E-04   0.45285E+00   0.45587E+02   0.70049E-01   0.36629E+00
   0.22049E-01   0.17241E-03   0.68226E+22   0.45370E-04   0.47125E+02  -0.63100E+00  -0.71689E+00   0.37668E+01   0.00000E+00   0.00000E+00   0.37668E+01   0.41287E+00   0.23050E+02   0.41256E-06   0.58219E-04   0.54646E+00   0.47135E+02  -0.76714E+00   0.35481E+00
   0.21791E-01   0.17241E-03   0.68922E+22   0.45833E-04   0.46789E+02   0.28143E+00  -0.24893E+00   0.37390E+01   0.00000E+00   0.00000E+00   0.37390E+01   0.41136E+00   0.23285E+02   0.40424E-06   0.56835E-04   0.56240E+00   0.46790E+02   0.34462E+00   0.35578E+00
   0.22049E-01   0.35201E-03   0.70150E+22   0.46650E-04   0.45508E+02  -0.26851E+00  -0.45108E+00   0.37976E+01   0.00000E+00   0.00000E+00   0.37976E+01   0.39702E+00   0.15651E+02   0.47190E-06   0.66865E-04   0.46658E+00   0.45511E+02  -0.33805E+00   0.36779E+00
   0.22049E-01   0.52203E-03   0.71504E+22   0.47550E-04   0.44586E+02  -0.80478E-01  -0.74506E+00   0.37822E+01   0.00000E+00   0.00000E+00   0.37822E+01   0.38979E+00   0.25629E+02   0.47818E-06   0.67617E-04   0.45192E+00   0.44592E+02  -0.10342E+00   0.37337E+00
   0.22521E-01   0.37356E-03   0.68408E+22   0.45492E-04   0.47216E+02  -0.57170E+00   0.50281E+00   0.38204E+01   0.00000E+00   0.00000E+00   0.38204E+01   0.41072E+00   0.36565E+02   0.50264E-06   0.71434E-04   0.43404E+00   0.47222E+02  -0.69372E+00   0.36082E+00
   0.22264E-01   0.37356E-03   0.69263E+22   0.46060E-04   0.46371E+02   0.19476E+00   0.16454E-01   0.38155E+01   0.00000E+00   0.00000E+00   0.38155E+01   0.40358E+00   0.21571E+02   0.48532E-06   0.68928E-04   0.45062E+00   0.46371E+02   0.24064E+00   0.36485E+00
   0.22564E-01   0.17241E-03   0.66522E+22   0.44237E-04   0.48049E+02  -0.10707E+00   0.67445E-01   0.38064E+01   0.00000E+00   0.00000E+00   0.38064E+01   0.41868E+00   0.22376E+02   0.46131E-06   0.65440E-04   0.48651E+00   0.48050E+02  -0.12767E+00   0.34958E+00
   0.22307E-01   0.17241E-03   0.66387E+22   0.44147E-04   0.47913E+02   0.65994E-01  -0.91555E+00   0.38244E+01   0.00000E+00   0.00000E+00   0.38244E+01   0.41658E+00   0.19472E+02   0.43254E-06   0.61504E-04   0.54488E+00   0.47922E+02   0.78918E-01   0.35052E+00
   0.22994E-01   0.22989E-03   0.66205E+22   0.44027E-04   0.48416E+02   0.23628E+00   0.59981E-01   0.38377E+01   0.00000E+00   0.00000E+00   0.38377E+01   0.42016E+00   0.23054E+02   0.45945E-06   0.65444E-04   0.50013E+00   0.48417E+02   0.27961E+00   0.35078E+00
   0.22865E-01   0.40230E-03   0.67759E+22   0.45059E-04   0.47483E+02   0.22033E+00  -0.57397E+00   0.38326E+01   0.00000E+00   0.00000E+00   0.38326E+01   0.41236E+00   0.27273E+02   0.50226E-06   0.71494E-04   0.43430E+00   0.47487E+02   0.26587E+00   0.35853E+00
   0.23123E-01   0.40230E-03   0.67372E+22   0.44803E-04   0.48037E+02  -0.17052E+00  -0.15983E+00   0.38307E+01   0.00000E+00   0.00000E+00   0.38307E+01   0.41725E+00   0.18047E+02   0.51688E-06   0.73556E-04   0.42240E+00   0.48038E+02  -0.20339E+00   0.35630E+00
   0.22779E-01   0.24138E-03   0.66410E+22   0.44163E-04   0.49437E+02  -0.26287E+00   0.41647E-02   0.38264E+01   0.00000E+00   0.00000E+00   0.38264E+01   0.42965E+00   0.17624E+02   0.50448E-06   0.71751E-04   0.43935E+00   0.49438E+02  -0.30465E+00   0.35082E+00
   0.22865E-01   0.57471E-04   0.65221E+22   0.43372E-04   0.48187E+02   0.11719E+00  -0.52089E+00   0.38315E+01   0.00000E+00   0.00000E+00   0.38315E+01   0.41852E+00   0.10341E+02   0.38967E-06   0.55460E-04   0.58184E+00   0.48189E+02   0.13935E+00   0.34500E+00
   0.23553E-01   0.22989E-03   0.65471E+22   0.43538E-04   0.49626E+02   0.55693E+00   0.16639E+00   0.37967E+01   0.00000E+00   0.00000E+00   0.37967E+01   0.43300E+00   0.39369E+02   0.50589E-06   0.71674E-04   0.45166E+00   0.49629E+02   0.64297E+00   0.34319E+00
   0.23553E-01   0.43678E-03   0.65727E+22   0.43708E-04   0.48796E+02   0.64046E+00   0.18280E-01   0.38546E+01   0.00000E+00   0.00000E+00   0.38546E+01   0.42256E+00   0.23521E+02   0.49828E-06   0.71132E-04   0.44198E+00   0.48800E+02   0.75198E+00   0.34978E+00
   0.23252E-01   0.22989E-03   0.65330E+22   0.43444E-04   0.49689E+02  -0.41903E+00  -0.10112E+00   0.38054E+01   0.00000E+00   0.00000E+00   0.38054E+01   0.43304E+00   0.30618E+02   0.40318E-06   0.57186E-04   0.56483E+00   0.49691E+02  -0.48317E+00   0.34322E+00
   0.23295E-01   0.43678E-03   0.67447E+22   0.44853E-04   0.47698E+02   0.84458E-01   0.73435E+00   0.38383E+01   0.00000E+00   0.00000E+00   0.38383E+01   0.41393E+00   0.12067E+02   0.51825E-06   0.73825E-04   0.43407E+00   0.47703E+02   0.10145E+00   0.35742E+00
   0.24069E-01   0.22989E-03   0.64566E+22   0.42937E-04   0.48808E+02   0.49566E+00   0.40811E+00   0.37942E+01   0.00000E+00   0.00000E+00   0.37942E+01   0.42601E+00   0.30362E+02   0.46589E-06   0.65984E-04   0.50222E+00   0.48812E+02   0.58184E+00   0.33821E+00
   0.23897E-01   0.45402E-03   0.65901E+22   0.43824E-04   0.48124E+02   0.72190E+00  -0.38074E+00   0.38107E+01   0.00000E+00   0.00000E+00   0.38107E+01   0.41915E+00   0.35324E+02   0.52624E-06   0.74693E-04   0.42121E+00   0.48131E+02   0.85942E+00   0.34671E+00
   0.24112E-01   0.40230E-03   0.65327E+22   0.43443E-04   0.48075E+02   0.46952E+00   0.13799E+01   0.38199E+01   0.00000E+00   0.00000E+00   0.38199E+01   0.41836E+00   0.87508E+01   0.54901E-06   0.78020E-04   0.41136E+00   0.48097E+02   0.55955E+00   0.34452E+00
   0.23811E-01   0.17241E-03   0.64382E+22   0.42814E-04   0.49123E+02  -0.36063E+00  -0.22988E+00   0.38219E+01   0.00000E+00   0.00000E+00   0.38219E+01   0.42718E+00   0.27086E+02   0.45693E-06   0.64951E-04   0.50948E+00   0.49125E+02  -0.42062E+00   0.33971E+00
   0.24241E-01   0.40230E-03   0.64704E+22   0.43028E-04   0.48216E+02   0.51383E+00   0.18565E+01   0.38094E+01   0.00000E+00   0.00000E+00   0.38094E+01   0.42030E+00   0.14450E+02   0.51910E-06   0.73667E-04   0.42787E+00   0.48255E+02   0.61057E+00   0.34030E+00
   0.24413E-01   0.22989E-03   0.63428E+22   0.42179E-04   0.49210E+02   0.88401E-01   0.68280E+00   0.37931E+01   0.00000E+00   0.00000E+00   0.37931E+01   0.42958E+00   0.32812E+02   0.49462E-06   0.70043E-04   0.46658E+00   0.49214E+02   0.10293E+00   0.33215E+00
   0.24628E-01   0.37356E-03   0.63687E+22   0.42352E-04   0.48982E+02   0.24693E+00   0.54636E+00   0.38166E+01   0.00000E+00   0.00000E+00   0.38166E+01   0.42627E+00   0.22688E+02   0.52425E-06   0.74468E-04   0.44003E+00   0.48986E+02   0.28884E+00   0.33558E+00
   0.24456E-01   0.43678E-03   0.64585E+22   0.42949E-04   0.48210E+02  -0.36191E+00   0.69965E+00   0.38312E+01   0.00000E+00   0.00000E+00   0.38312E+01   0.41878E+00   0.17346E+02   0.53778E-06   0.76537E-04   0.42039E+00   0.48217E+02  -0.43010E+00   0.34162E+00
   0.24670E-01   0.11494E-03   0.62436E+22   0.41520E-04   0.50435E+02   0.23373E+00  -0.18748E-01   0.37696E+01   0.00000E+00   0.00000E+00   0.37696E+01   0.44161E+00   0.20884E+02   0.49988E-06   0.70568E-04   0.47438E+00   0.50435E+02   0.26552E+00   0.32494E+00
   0.24928E-01   0.22989E-03   0.62396E+22   0.41493E-04   0.50961E+02  -0.10340E+00   0.54911E+00   0.37859E+01   0.00000E+00   0.00000E+00   0.37859E+01   0.44528E+00   0.27084E+02   0.47228E-06   0.66815E-04   0.49386E+00   0.50964E+02  -0.11625E+00   0.32613E+00
   0.25186E-01   0.40230E-03   0.62816E+22   0.41772E-04   0.49394E+02   0.82485E+00   0.11689E+01   0.38050E+01   0.00000E+00   0.00000E+00   0.38050E+01   0.43065E+00   0.25236E+02   0.53747E-06   0.76230E-04   0.42969E+00   0.49415E+02   0.95671E+00   0.32999E+00
   0.24842E-01   0.40230E-03   0.63567E+22   0.42272E-04   0.49322E+02   0.15375E+00   0.67208E+00   0.38070E+01   0.00000E+00   0.00000E+00   0.38070E+01   0.42977E+00   0.25566E+02   0.51875E-06   0.73594E-04   0.43758E+00   0.49326E+02   0.17861E+00   0.33410E+00
   0.25143E-01   0.17241E-03   0.61870E+22   0.41143E-04   0.51707E+02   0.22040E+00   0.96245E+00   0.37778E+01   0.00000E+00   0.00000E+00   0.37778E+01   0.45234E+00   0.20921E+02   0.49925E-06   0.70556E-04   0.48100E+00   0.51716E+02   0.24422E+00   0.32269E+00
   0.25616E-01   0.22989E-03   0.60440E+22   0.40193E-04   0.51306E+02  -0.86704E-01  -0.72576E+00   0.37629E+01   0.00000E+00   0.00000E+00   0.37629E+01   0.44967E+00   0.28438E+02   0.54677E-06   0.77120E-04   0.43509E+00   0.51311E+02  -0.96827E-01   0.31399E+00
   0.25401E-01   0.37356E-03   0.61512E+22   0.40906E-04   0.51251E+02  -0.44717E+00   0.17100E+00   0.37895E+01   0.00000E+00   0.00000E+00   0.37895E+01   0.44760E+00   0.24662E+02   0.56252E-06   0.79620E-04   0.40683E+00   0.51254E+02  -0.49989E+00   0.32182E+00
   0.25401E-01   0.11494E-03   0.59916E+22   0.39844E-04   0.50858E+02   0.64566E+00  -0.24696E-01   0.37503E+01   0.00000E+00   0.00000E+00   0.37503E+01   0.44650E+00   0.14993E+02   0.50586E-06   0.71229E-04   0.48062E+00   0.50862E+02   0.72735E+00   0.31022E+00
   0.25659E-01   0.40230E-03   0.61504E+22   0.40900E-04   0.50750E+02   0.63422E+00   0.59646E+00   0.37941E+01   0.00000E+00   0.00000E+00   0.37941E+01   0.44299E+00   0.21955E+02   0.53325E-06   0.75524E-04   0.43353E+00   0.50757E+02   0.71599E+00   0.32217E+00
   0.25960E-01   0.22989E-03   0.59693E+22   0.39696E-04   0.51876E+02  -0.99545E-01   0.44256E+00   0.37795E+01   0.00000E+00   0.00000E+00   0.37795E+01   0.45365E+00   0.35951E+02   0.50403E-06   0.71247E-04   0.48529E+00   0.51878E+02  -0.10994E+00   0.31148E+00
   0.26175E-01   0.17241E-03   0.58863E+22   0.39144E-04   0.51560E+02   0.48267E-01   0.37174E+00   0.37657E+01   0.00000E+00   0.00000E+00   0.37657E+01   0.45171E+00   0.19888E+02   0.46202E-06   0.65189E-04   0.53898E+00   0.51562E+02   0.53636E-01   0.30602E+00
   0.25960E-01   0.43678E-03   0.61062E+22   0.40606E-04   0.51172E+02  -0.38701E+00   0.40151E+00   0.38158E+01   0.00000E+00   0.00000E+00   0.38158E+01   0.44537E+00   0.21849E+02   0.57684E-06   0.81930E-04   0.40279E+00   0.51175E+02  -0.43331E+00   0.32168E+00
   0.26261E-01   0.40230E-03   0.60834E+22   0.40454E-04   0.51433E+02   0.59582E-01   0.39057E+00   0.37593E+01   0.00000E+00   0.00000E+00   0.37593E+01   0.45098E+00   0.19033E+02   0.56169E-06   0.79185E-04   0.41287E+00   0.51434E+02   0.66374E-01   0.31573E+00
   0.26648E-01   0.22989E-03   0.59471E+22   0.39548E-04   0.51646E+02  -0.89993E-01  -0.20323E+00   0.37309E+01   0.00000E+00   0.00000E+00   0.37309E+01   0.45456E+00   0.33332E+02   0.52075E-06   0.73136E-04   0.46065E+00   0.51646E+02  -0.99838E-01   0.30632E+00
   0.26648E-01   0.48589E-03   0.60817E+22   0.40443E-04   0.51468E+02  -0.12390E+00   0.36977E+00   0.37444E+01   0.00000E+00   0.00000E+00   0.37444E+01   0.45218E+00   0.24490E+02   0.54941E-06   0.77301E-04   0.41889E+00   0.51470E+02  -0.13793E+00   0.31440E+00
   0.26433E-01   0.37356E-03   0.60233E+22   0.40055E-04   0.51739E+02  -0.59321E-01   0.64169E+00   0.37431E+01   0.00000E+00   0.00000E+00   0.37431E+01   0.45466E+00   0.21439E+02   0.57762E-06   0.81255E-04   0.40615E+00   0.51743E+02  -0.65692E-01   0.31126E+00
   0.26433E-01   0.11494E-03   0.57898E+22   0.38502E-04   0.52168E+02  -0.24636E+00   0.12085E+01   0.37554E+01   0.00000E+00   0.00000E+00   0.37554E+01   0.45778E+00   0.14493E+02   0.34708E-06   0.48905E-04   0.76126E+00   0.52183E+02  -0.27057E+00   0.30018E+00
   0.26991E-01   0.22989E-03   0.59500E+22   0.39568E-04   0.52803E+02  -0.34807E+00   0.14383E+00   0.36907E+01   0.00000E+00   0.00000E+00   0.36907E+01   0.46727E+00   0.40751E+02   0.55366E-06   0.77338E-04   0.43902E+00   0.52805E+02  -0.37768E+00   0.30317E+00
   0.26991E-01   0.43678E-03   0.59726E+22   0.39718E-04   0.52338E+02  -0.21447E+00  -0.69829E-01   0.37441E+01   0.00000E+00   0.00000E+00   0.37441E+01   0.45983E+00   0.21375E+02   0.58560E-06   0.82389E-04   0.39614E+00   0.52339E+02  -0.23479E+00   0.30873E+00
   0.27249E-01   0.22989E-03   0.58050E+22   0.38604E-04   0.54534E+02   0.13182E+00  -0.81687E+00   0.37046E+01   0.00000E+00   0.00000E+00   0.37046E+01   0.48173E+00   0.19990E+02   0.55358E-06   0.77473E-04   0.44706E+00   0.54540E+02   0.13849E+00   0.29690E+00