VARIABLES = "X","Y","ND","D","U","V","W","TTR","TRT","TVB","TOV","MA","MC","MCT","MFP","SOF","FSP","ANG","P"
 ZONE I=        9578  F=POINT
   0.15109E-01   0.50206E-03   0.16864E+24   0.11214E-02   0.29429E+02  -0.13200E+00  -0.18555E+01   0.35197E+01   0.00000E+00   0.00000E+00   0.35197E+01   0.26720E+00   0.17296E+02   0.22577E-07   0.30797E-05   0.10514E+02   0.29488E+02  -0.25698E+00   0.81945E+01
   0.15164E-01   0.89352E-03   0.16136E+24   0.10731E-02   0.29991E+02  -0.91984E+00  -0.10588E+01   0.35267E+01   0.00000E+00   0.00000E+00   0.35267E+01   0.27179E+00   0.82384E+02   0.23091E-07   0.31529E-05   0.75786E+01   0.30024E+02  -0.17567E+01   0.78568E+01
   0.15109E-01   0.14815E-03   0.18008E+24   0.11975E-02   0.24494E+02  -0.13353E+01  -0.33534E+01   0.35425E+01   0.00000E+00   0.00000E+00   0.35425E+01   0.22363E+00   0.82090E+01   0.22115E-07   0.30265E-05   0.18563E+02   0.24759E+02  -0.31203E+01   0.88072E+01
   0.15164E-01   0.61279E-03   0.16290E+24   0.10833E-02   0.30562E+02  -0.16966E+01  -0.10163E+01   0.35592E+01   0.00000E+00   0.00000E+00   0.35592E+01   0.27597E+00   0.28589E+02   0.22717E-07   0.31162E-05   0.93511E+01   0.30626E+02  -0.31774E+01   0.80046E+01
   0.15164E-01   0.72365E-03   0.16221E+24   0.10787E-02   0.29941E+02  -0.14944E+01  -0.14846E+01   0.35578E+01   0.00000E+00   0.00000E+00   0.35578E+01   0.27052E+00   0.33644E+02   0.23007E-07   0.31554E-05   0.84574E+01   0.30015E+02  -0.28573E+01   0.79678E+01
   0.15055E-01   0.34568E-03   0.18460E+24   0.12276E-02   0.27073E+02   0.23428E+00  -0.81710E+00   0.35173E+01   0.00000E+00   0.00000E+00   0.35173E+01   0.24553E+00   0.15147E+02   0.20075E-07   0.27375E-05   0.13856E+02   0.27086E+02   0.49581E+00   0.89644E+01
   0.15873E-01   0.56296E-03   0.16301E+24   0.10840E-02   0.36286E+02  -0.21088E+01  -0.13185E+01   0.35598E+01   0.00000E+00   0.00000E+00   0.35598E+01   0.32771E+00   0.37895E+02   0.22263E-07   0.30542E-05   0.99317E+01   0.36371E+02  -0.33261E+01   0.80114E+01
   0.15545E-01   0.51852E-03   0.16658E+24   0.11077E-02   0.32871E+02  -0.22294E+01  -0.12907E+01   0.34983E+01   0.00000E+00   0.00000E+00   0.34983E+01   0.29969E+00   0.42521E+02   0.21940E-07   0.29837E-05   0.10516E+02   0.32972E+02  -0.38800E+01   0.80453E+01
   0.16036E-01   0.34568E-03   0.16678E+24   0.11091E-02   0.34667E+02  -0.17410E+01  -0.22554E+00   0.34972E+01   0.00000E+00   0.00000E+00   0.34972E+01   0.31555E+00   0.12924E+02   0.22247E-07   0.30250E-05   0.12897E+02   0.34711E+02  -0.28750E+01   0.80526E+01
   0.15545E-01   0.84444E-03   0.16259E+24   0.10812E-02   0.33202E+02  -0.44910E+01   0.39539E-02   0.35150E+01   0.00000E+00   0.00000E+00   0.35150E+01   0.30381E+00   0.68184E+02   0.22988E-07   0.31337E-05   0.79147E+01   0.33505E+02  -0.77031E+01   0.78900E+01
   0.16145E-01   0.84444E-03   0.16156E+24   0.10744E-02   0.39441E+02  -0.32575E+01  -0.76513E+00   0.34852E+01   0.00000E+00   0.00000E+00   0.34852E+01   0.36045E+00   0.53760E+02   0.23098E-07   0.31353E-05   0.81265E+01   0.39583E+02  -0.47215E+01   0.77737E+01
   0.16145E-01   0.61279E-03   0.16440E+24   0.10932E-02   0.39097E+02  -0.17980E+01  -0.20870E+00   0.35056E+01   0.00000E+00   0.00000E+00   0.35056E+01   0.35537E+00   0.16486E+02   0.22394E-07   0.30486E-05   0.95717E+01   0.39139E+02  -0.26331E+01   0.79566E+01
   0.15764E-01   0.83457E-03   0.16326E+24   0.10857E-02   0.35563E+02  -0.39901E+01   0.12420E+01   0.34555E+01   0.00000E+00   0.00000E+00   0.34555E+01   0.32747E+00   0.11163E+02   0.23191E-07   0.31346E-05   0.80332E+01   0.35807E+02  -0.64018E+01   0.77884E+01
   0.15655E-01   0.24074E-03   0.16631E+24   0.11060E-02   0.31683E+02  -0.35099E+00  -0.40088E+01   0.35702E+01   0.00000E+00   0.00000E+00   0.35702E+01   0.28734E+00   0.10613E+02   0.23325E-07   0.32045E-05   0.13917E+02   0.31937E+02  -0.63471E+00   0.81974E+01
   0.16145E-01   0.34568E-03   0.16798E+24   0.11171E-02   0.35891E+02  -0.37381E+00   0.64421E+00   0.34901E+01   0.00000E+00   0.00000E+00   0.34901E+01   0.32667E+00   0.14549E+02   0.21884E-07   0.29726E-05   0.12709E+02   0.35899E+02  -0.59672E+00   0.80942E+01
   0.15764E-01   0.45370E-03   0.16660E+24   0.11079E-02   0.34470E+02  -0.58345E+00  -0.15969E+00   0.34860E+01   0.00000E+00   0.00000E+00   0.34860E+01   0.31390E+00   0.22782E+02   0.22188E-07   0.30121E-05   0.11631E+02   0.34475E+02  -0.96972E+00   0.80178E+01
   0.15491E-01   0.24074E-03   0.17501E+24   0.11638E-02   0.30253E+02  -0.20888E+01  -0.31812E+01   0.35436E+01   0.00000E+00   0.00000E+00   0.35436E+01   0.27536E+00   0.10371E+02   0.20390E-07   0.27908E-05   0.16918E+02   0.30491E+02  -0.39497E+01   0.85621E+01
   0.16200E-01   0.14815E-03   0.17005E+24   0.11308E-02   0.35727E+02  -0.11504E+00   0.24949E+01   0.34658E+01   0.00000E+00   0.00000E+00   0.34658E+01   0.32704E+00   0.85266E+01   0.24296E-07   0.32888E-05   0.14207E+02   0.35814E+02  -0.18449E+00   0.81367E+01
   0.16309E-01   0.34568E-03   0.16344E+24   0.10869E-02   0.38407E+02  -0.14634E+01   0.24811E+01   0.34782E+01   0.00000E+00   0.00000E+00   0.34782E+01   0.35108E+00   0.89400E+01   0.22334E-07   0.30285E-05   0.12532E+02   0.38515E+02  -0.21821E+01   0.78482E+01
   0.15600E-01   0.74074E-04   0.18654E+24   0.12405E-02   0.31720E+02  -0.27034E+00  -0.33927E+00   0.34470E+01   0.00000E+00   0.00000E+00   0.34470E+01   0.29047E+00   0.34012E+01   0.26564E-07   0.35860E-05   0.16944E+02   0.31723E+02  -0.48829E+00   0.88774E+01
   0.16091E-01   0.11148E-02   0.15511E+24   0.10315E-02   0.41166E+02  -0.43343E+01  -0.21847E+00   0.34842E+01   0.00000E+00   0.00000E+00   0.34842E+01   0.37700E+00   0.55151E+02   0.24345E-07   0.33042E-05   0.65738E+01   0.41394E+02  -0.60105E+01   0.74613E+01
   0.15927E-01   0.14815E-03   0.17950E+24   0.11936E-02   0.32143E+02  -0.10037E+01  -0.84514E+00   0.33894E+01   0.00000E+00   0.00000E+00   0.33894E+01   0.29705E+00   0.65456E+01   0.21683E-07   0.29026E-05   0.17789E+02   0.32170E+02  -0.17886E+01   0.83994E+01
   0.15927E-01   0.83457E-03   0.16028E+24   0.10659E-02   0.38123E+02  -0.34399E+01  -0.24402E+00   0.35446E+01   0.00000E+00   0.00000E+00   0.35446E+01   0.34564E+00   0.21919E+02   0.23120E-07   0.31649E-05   0.80155E+01   0.38278E+02  -0.51559E+01   0.78437E+01
   0.15927E-01   0.10041E-02   0.16334E+24   0.10862E-02   0.37001E+02  -0.33585E+01   0.28167E+00   0.34445E+01   0.00000E+00   0.00000E+00   0.34445E+01   0.34033E+00   0.39462E+02   0.23137E-07   0.31222E-05   0.74814E+01   0.37155E+02  -0.51863E+01   0.77676E+01
   0.16200E-01   0.56296E-03   0.16357E+24   0.10878E-02   0.39975E+02  -0.25540E+01   0.19905E+01   0.35071E+01   0.00000E+00   0.00000E+00   0.35071E+01   0.36407E+00   0.28334E+02   0.22602E-07   0.30777E-05   0.10301E+02   0.40106E+02  -0.36556E+01   0.79202E+01
   0.15709E-01   0.11148E-02   0.15759E+24   0.10480E-02   0.37025E+02  -0.53907E+01  -0.62001E+00   0.34715E+01   0.00000E+00   0.00000E+00   0.34715E+01   0.34143E+00   0.42383E+02   0.23575E-07   0.31937E-05   0.67026E+01   0.37420E+02  -0.82840E+01   0.75527E+01
   0.15873E-01   0.72365E-03   0.16367E+24   0.10884E-02   0.38376E+02  -0.33169E+01  -0.82702E+00   0.35019E+01   0.00000E+00   0.00000E+00   0.35019E+01   0.35000E+00   0.29096E+02   0.22423E-07   0.30510E-05   0.88005E+01   0.38528E+02  -0.49399E+01   0.79128E+01
   0.15818E-01   0.28148E-03   0.16874E+24   0.11221E-02   0.33445E+02  -0.72529E+00  -0.11678E+00   0.34647E+01   0.00000E+00   0.00000E+00   0.34647E+01   0.30553E+00   0.76915E+01   0.21934E-07   0.29685E-05   0.13721E+02   0.33453E+02  -0.12423E+01   0.80712E+01
   0.15436E-01   0.11148E-02   0.15931E+24   0.10594E-02   0.36397E+02  -0.59959E+01  -0.23643E+00   0.34679E+01   0.00000E+00   0.00000E+00   0.34679E+01   0.33675E+00   0.56643E+02   0.23551E-07   0.31889E-05   0.66949E+01   0.36888E+02  -0.93548E+01   0.76273E+01
   0.15273E-01   0.22222E-03   0.16089E+24   0.10699E-02   0.30341E+02  -0.65565E+00  -0.45513E+01   0.35516E+01   0.00000E+00   0.00000E+00   0.35516E+01   0.27682E+00   0.10267E+02   0.22798E-07   0.31239E-05   0.14661E+02   0.30687E+02  -0.12379E+01   0.78887E+01
   0.15327E-01   0.45370E-03   0.16480E+24   0.10959E-02   0.31012E+02  -0.12433E+01  -0.19849E+01   0.34894E+01   0.00000E+00   0.00000E+00   0.34894E+01   0.28303E+00   0.22537E+02   0.21976E-07   0.29848E-05   0.12206E+02   0.31100E+02  -0.22958E+01   0.79394E+01
   0.15600E-01   0.67284E-03   0.16056E+24   0.10677E-02   0.34458E+02  -0.29177E+01  -0.10625E+01   0.35418E+01   0.00000E+00   0.00000E+00   0.35418E+01   0.31253E+00   0.27079E+02   0.22963E-07   0.31423E-05   0.87893E+01   0.34597E+02  -0.48399E+01   0.78508E+01
   0.16255E-01   0.90741E-03   0.15748E+24   0.10472E-02   0.41844E+02  -0.32345E+01  -0.26235E+00   0.34474E+01   0.00000E+00   0.00000E+00   0.34474E+01   0.38428E+00   0.58145E+02   0.23551E-07   0.31794E-05   0.78288E+01   0.41970E+02  -0.44200E+01   0.74952E+01
   0.15709E-01   0.94553E-03   0.16126E+24   0.10724E-02   0.37067E+02  -0.54170E+01   0.28703E+00   0.34110E+01   0.00000E+00   0.00000E+00   0.34110E+01   0.34482E+00   0.24993E+02   0.23308E-07   0.31300E-05   0.75101E+01   0.37461E+02  -0.83144E+01   0.75943E+01
   0.16855E-01   0.45370E-03   0.16353E+24   0.10875E-02   0.42582E+02  -0.18055E+01   0.31988E-01   0.34318E+01   0.00000E+00   0.00000E+00   0.34318E+01   0.39112E+00   0.35781E+02   0.22721E-07   0.30604E-05   0.11381E+02   0.42620E+02  -0.24280E+01   0.77482E+01
   0.17236E-01   0.89352E-03   0.16031E+24   0.10661E-02   0.45190E+02  -0.15354E+01  -0.41961E+00   0.33630E+01   0.00000E+00   0.00000E+00   0.33630E+01   0.41918E+00   0.34346E+02   0.23358E-07   0.31146E-05   0.78729E+01   0.45218E+02  -0.19460E+01   0.74432E+01
   0.16636E-01   0.78307E-03   0.16217E+24   0.10784E-02   0.42636E+02  -0.28209E+01  -0.47099E-01   0.34243E+01   0.00000E+00   0.00000E+00   0.34243E+01   0.39255E+00   0.42875E+02   0.22978E-07   0.30917E-05   0.82857E+01   0.42729E+02  -0.37853E+01   0.76666E+01
   0.17236E-01   0.39153E-03   0.16648E+24   0.11071E-02   0.45583E+02  -0.19330E+01  -0.14087E+01   0.33433E+01   0.00000E+00   0.00000E+00   0.33433E+01   0.42439E+00   0.21248E+02   0.22627E-07   0.30082E-05   0.12077E+02   0.45646E+02  -0.24282E+01   0.76845E+01
   0.17182E-01   0.56296E-03   0.16272E+24   0.10821E-02   0.45671E+02  -0.29811E+01   0.97550E+00   0.33434E+01   0.00000E+00   0.00000E+00   0.33434E+01   0.42562E+00   0.14834E+02   0.23185E-07   0.30824E-05   0.99382E+01   0.45779E+02  -0.37346E+01   0.75109E+01
   0.16636E-01   0.61279E-03   0.16358E+24   0.10878E-02   0.41978E+02  -0.14467E+01  -0.16087E+00   0.33842E+01   0.00000E+00   0.00000E+00   0.33842E+01   0.38816E+00   0.24606E+02   0.22995E-07   0.30758E-05   0.94878E+01   0.42003E+02  -0.19738E+01   0.76429E+01
   0.16909E-01   0.95425E-03   0.15504E+24   0.10310E-02   0.43500E+02  -0.29733E+01   0.80268E+00   0.34255E+01   0.00000E+00   0.00000E+00   0.34255E+01   0.40056E+00   0.61486E+02   0.23883E-07   0.32139E-05   0.75912E+01   0.43609E+02  -0.39101E+01   0.73323E+01
   0.17127E-01   0.17284E-03   0.17648E+24   0.11736E-02   0.44894E+02  -0.25037E+00   0.15540E+01   0.33959E+01   0.00000E+00   0.00000E+00   0.33959E+01   0.41442E+00   0.48267E+01   0.21009E-07   0.28150E-05   0.19486E+02   0.44922E+02  -0.31953E+00   0.82741E+01
   0.16855E-01   0.22222E-03   0.16506E+24   0.10976E-02   0.42942E+02  -0.11648E+01   0.19152E+01   0.34534E+01   0.00000E+00   0.00000E+00   0.34534E+01   0.39337E+00   0.15800E+02   0.23575E-07   0.31854E-05   0.13672E+02   0.43000E+02  -0.15537E+01   0.78696E+01
   0.16527E-01   0.34568E-03   0.16795E+24   0.11169E-02   0.39064E+02  -0.19592E+01   0.67199E+00   0.35032E+01   0.00000E+00   0.00000E+00   0.35032E+01   0.35531E+00   0.27561E+02   0.21834E-07   0.29714E-05   0.12988E+02   0.39119E+02  -0.28712E+01   0.81231E+01
   0.17345E-01   0.22222E-03   0.16930E+24   0.11259E-02   0.47036E+02  -0.40352E+00  -0.21343E+00   0.33575E+01   0.00000E+00   0.00000E+00   0.33575E+01   0.43641E+00   0.13891E+02   0.23332E-07   0.31086E-05   0.13819E+02   0.47038E+02  -0.49153E+00   0.78479E+01
   0.16855E-01   0.72365E-03   0.15910E+24   0.10580E-02   0.47460E+02  -0.30984E+01   0.14897E+01   0.34126E+01   0.00000E+00   0.00000E+00   0.34126E+01   0.43789E+00   0.94278E+01   0.23425E-07   0.31464E-05   0.87013E+01   0.47584E+02  -0.37353E+01   0.74958E+01
   0.16527E-01   0.14815E-03   0.17080E+24   0.11358E-02   0.38851E+02  -0.87709E+00   0.14797E+01   0.34472E+01   0.00000E+00   0.00000E+00   0.34472E+01   0.35608E+00   0.77857E+01   0.23350E-07   0.31522E-05   0.14743E+02   0.38889E+02  -0.12933E+01   0.81289E+01
   0.17073E-01   0.74074E-04   0.15942E+24   0.10602E-02   0.47877E+02   0.13419E+01  -0.66713E-01   0.35213E+01   0.00000E+00   0.00000E+00   0.35213E+01   0.43391E+00   0.21801E+01   0.44016E-07   0.60056E-05   0.87001E+01   0.47896E+02   0.16055E+01   0.77502E+01
   0.16909E-01   0.61279E-03   0.16120E+24   0.10720E-02   0.45432E+02  -0.31268E+01  -0.23066E+00   0.34265E+01   0.00000E+00   0.00000E+00   0.34265E+01   0.41824E+00   0.16166E+02   0.22946E-07   0.30884E-05   0.95799E+01   0.45540E+02  -0.39372E+01   0.76257E+01
   0.16473E-01   0.90741E-03   0.15992E+24   0.10635E-02   0.41317E+02  -0.39279E+01  -0.77279E+00   0.34178E+01   0.00000E+00   0.00000E+00   0.34178E+01   0.38171E+00   0.72896E+02   0.23164E-07   0.31137E-05   0.78950E+01   0.41511E+02  -0.54306E+01   0.75459E+01
   0.16691E-01   0.10041E-02   0.15653E+24   0.10409E-02   0.42669E+02  -0.25728E+01   0.42572E+00   0.33963E+01   0.00000E+00   0.00000E+00   0.33963E+01   0.39434E+00   0.51372E+02   0.23758E-07   0.31835E-05   0.73986E+01   0.42749E+02  -0.34505E+01   0.73394E+01
   0.16691E-01   0.72365E-03   0.16314E+24   0.10849E-02   0.45130E+02  -0.20144E+01   0.30443E+00   0.34083E+01   0.00000E+00   0.00000E+00   0.34083E+01   0.41599E+00   0.19334E+02   0.23066E-07   0.30962E-05   0.87064E+01   0.45175E+02  -0.25558E+01   0.76764E+01
   0.17291E-01   0.78307E-03   0.15674E+24   0.10423E-02   0.45795E+02  -0.16661E+01  -0.72921E+00   0.33914E+01   0.00000E+00   0.00000E+00   0.33914E+01   0.42309E+00   0.38581E+02   0.23686E-07   0.31715E-05   0.84823E+01   0.45831E+02  -0.20836E+01   0.73386E+01
   0.17073E-01   0.56296E-03   0.16313E+24   0.10848E-02   0.44866E+02  -0.22434E+01   0.19182E+01   0.33598E+01   0.00000E+00   0.00000E+00   0.33598E+01   0.41701E+00   0.14872E+02   0.23186E-07   0.30901E-05   0.10018E+02   0.44963E+02  -0.28626E+01   0.75667E+01
   0.17073E-01   0.28148E-03   0.16991E+24   0.11299E-02   0.42935E+02  -0.10173E+01  -0.24618E-01   0.33378E+01   0.00000E+00   0.00000E+00   0.33378E+01   0.39963E+00   0.11618E+02   0.22233E-07   0.29534E-05   0.13577E+02   0.42947E+02  -0.13573E+01   0.78299E+01
   0.17018E-01   0.83457E-03   0.16228E+24   0.10792E-02   0.44767E+02  -0.18531E+01   0.42380E+00   0.33675E+01   0.00000E+00   0.00000E+00   0.33675E+01   0.41510E+00   0.22192E+02   0.23137E-07   0.30871E-05   0.81058E+01   0.44807E+02  -0.23704E+01   0.75448E+01
   0.16527E-01   0.56296E-03   0.16519E+24   0.10985E-02   0.42043E+02  -0.27040E+01   0.58249E+00   0.34689E+01   0.00000E+00   0.00000E+00   0.34689E+01   0.38458E+00   0.28614E+02   0.22575E-07   0.30572E-05   0.10323E+02   0.42134E+02  -0.36799E+01   0.79113E+01
   0.17018E-01   0.72365E-03   0.15984E+24   0.10629E-02   0.45521E+02  -0.16855E+01   0.47294E+00   0.34023E+01   0.00000E+00   0.00000E+00   0.34023E+01   0.41985E+00   0.18944E+02   0.23131E-07   0.31022E-05   0.87100E+01   0.45555E+02  -0.21206E+01   0.75081E+01
   0.17127E-01   0.10041E-02   0.15176E+24   0.10092E-02   0.45177E+02  -0.18859E+01  -0.54491E+00   0.34508E+01   0.00000E+00   0.00000E+00   0.34508E+01   0.41383E+00   0.49806E+02   0.24571E-07   0.33188E-05   0.72411E+01   0.45219E+02  -0.23904E+01   0.72299E+01
   0.16418E-01   0.74074E-04   0.18793E+24   0.12497E-02   0.36455E+02   0.14046E+00  -0.31481E+01   0.33920E+01   0.00000E+00   0.00000E+00   0.33920E+01   0.33775E+00   0.25699E+01   0.25910E-07   0.34697E-05   0.17115E+02   0.36591E+02   0.22076E+00   0.88008E+01
   0.17345E-01   0.56296E-03   0.16194E+24   0.10769E-02   0.46057E+02  -0.14162E+01   0.63835E+00   0.33552E+01   0.00000E+00   0.00000E+00   0.33552E+01   0.42770E+00   0.29527E+02   0.23325E-07   0.31065E-05   0.98948E+01   0.46084E+02  -0.17612E+01   0.75013E+01
   0.17891E-01   0.67284E-03   0.15618E+24   0.10386E-02   0.48170E+02  -0.96048E+00  -0.40889E-01   0.33623E+01   0.00000E+00   0.00000E+00   0.33623E+01   0.44669E+00   0.24916E+02   0.24008E-07   0.32008E-05   0.90802E+01   0.48180E+02  -0.11423E+01   0.72496E+01
   0.18327E-01   0.89352E-03   0.14842E+24   0.98697E-03   0.49065E+02  -0.38648E+00   0.19448E+01   0.34153E+01   0.00000E+00   0.00000E+00   0.34153E+01   0.45171E+00   0.43298E+02   0.25189E-07   0.33847E-05   0.75479E+01   0.49105E+02  -0.45131E+00   0.69981E+01
   0.17945E-01   0.34568E-03   0.16368E+24   0.10885E-02   0.48951E+02   0.20172E+00  -0.81023E+00   0.33463E+01   0.00000E+00   0.00000E+00   0.33463E+01   0.45498E+00   0.21637E+02   0.23310E-07   0.31004E-05   0.12390E+02   0.48958E+02   0.23610E+00   0.75619E+01
   0.18327E-01   0.29630E-03   0.16517E+24   0.10984E-02   0.50318E+02  -0.43693E+00  -0.15041E+00   0.32873E+01   0.00000E+00   0.00000E+00   0.32873E+01   0.47182E+00   0.31622E+02   0.23975E-07   0.31606E-05   0.13642E+02   0.50320E+02  -0.49751E+00   0.74963E+01
   0.17618E-01   0.45370E-03   0.16525E+24   0.10989E-02   0.47837E+02  -0.90914E+00  -0.10160E+01   0.33563E+01   0.00000E+00   0.00000E+00   0.33563E+01   0.44409E+00   0.29378E+02   0.22601E-07   0.30105E-05   0.11347E+02   0.47857E+02  -0.10888E+01   0.76572E+01
   0.17509E-01   0.95425E-03   0.15257E+24   0.10146E-02   0.46010E+02  -0.16521E+01   0.35874E+00   0.34090E+01   0.00000E+00   0.00000E+00   0.34090E+01   0.42392E+00   0.82758E+02   0.24528E-07   0.32928E-05   0.74423E+01   0.46041E+02  -0.20565E+01   0.71804E+01
   0.17727E-01   0.67284E-03   0.15722E+24   0.10455E-02   0.47605E+02  -0.88342E+00  -0.77425E+00   0.33963E+01   0.00000E+00   0.00000E+00   0.33963E+01   0.43927E+00   0.35832E+02   0.23676E-07   0.31725E-05   0.88023E+01   0.47619E+02  -0.10631E+01   0.73717E+01
   0.18000E-01   0.84444E-03   0.15152E+24   0.10076E-02   0.49476E+02  -0.33945E+00   0.15493E+01   0.34168E+01   0.00000E+00   0.00000E+00   0.34168E+01   0.45526E+00   0.41441E+02   0.24690E-07   0.33184E-05   0.78247E+01   0.49501E+02  -0.39309E+00   0.71475E+01
   0.18164E-01   0.45370E-03   0.16547E+24   0.11004E-02   0.49352E+02  -0.10576E+01  -0.16413E+01   0.33159E+01   0.00000E+00   0.00000E+00   0.33159E+01   0.46110E+00   0.12068E+02   0.22732E-07   0.30097E-05   0.11332E+02   0.49391E+02  -0.12276E+01   0.75752E+01
   0.17891E-01   0.89352E-03   0.15239E+24   0.10134E-02   0.48343E+02  -0.10993E+01   0.54254E+00   0.33983E+01   0.00000E+00   0.00000E+00   0.33983E+01   0.44596E+00   0.34036E+02   0.24884E-07   0.33353E-05   0.74228E+01   0.48358E+02  -0.13027E+01   0.71494E+01
   0.17618E-01   0.14815E-03   0.16652E+24   0.11074E-02   0.46888E+02  -0.13288E+01   0.24484E+01   0.33833E+01   0.00000E+00   0.00000E+00   0.33833E+01   0.43412E+00   0.91087E+01   0.25708E-07   0.34382E-05   0.13707E+02   0.46971E+02  -0.16233E+01   0.77782E+01
   0.18382E-01   0.45370E-03   0.16001E+24   0.10640E-02   0.50875E+02  -0.11608E+01   0.34899E+00   0.33182E+01   0.00000E+00   0.00000E+00   0.33182E+01   0.47493E+00   0.29903E+02   0.23474E-07   0.31091E-05   0.11061E+02   0.50890E+02  -0.13071E+01   0.73301E+01
   0.17891E-01   0.50206E-03   0.16097E+24   0.10704E-02   0.48951E+02  -0.23657E+00  -0.20114E+01   0.33774E+01   0.00000E+00   0.00000E+00   0.33774E+01   0.45321E+00   0.13207E+02   0.24064E-07   0.32155E-05   0.10319E+02   0.48993E+02  -0.27690E+00   0.75056E+01
   0.18164E-01   0.84444E-03   0.15095E+24   0.10038E-02   0.49080E+02  -0.15424E+01   0.16591E+01   0.33792E+01   0.00000E+00   0.00000E+00   0.33792E+01   0.45438E+00   0.30964E+02   0.24712E-07   0.33030E-05   0.78616E+01   0.49132E+02  -0.18000E+01   0.70422E+01
   0.17836E-01   0.14815E-03   0.17591E+24   0.11698E-02   0.46808E+02  -0.87279E+00   0.56553E+00   0.34481E+01   0.00000E+00   0.00000E+00   0.34481E+01   0.42864E+00   0.32074E+01   0.22931E-07   0.30961E-05   0.17792E+02   0.46820E+02  -0.10682E+01   0.83741E+01
   0.18055E-01   0.14815E-03   0.16657E+24   0.11077E-02   0.51457E+02   0.54212E+00  -0.10898E+01   0.32988E+01   0.00000E+00   0.00000E+00   0.32988E+01   0.48177E+00   0.68336E+01   0.30783E-07   0.40652E-05   0.11881E+02   0.51471E+02   0.60362E+00   0.75862E+01
   0.18109E-01   0.61279E-03   0.15481E+24   0.10295E-02   0.47884E+02  -0.94387E+00  -0.10198E+01   0.33559E+01   0.00000E+00   0.00000E+00   0.33559E+01   0.44456E+00   0.15524E+02   0.24279E-07   0.32338E-05   0.93163E+01   0.47904E+02  -0.11292E+01   0.71723E+01
   0.18382E-01   0.61279E-03   0.15747E+24   0.10472E-02   0.48691E+02  -0.14773E+01   0.15728E+00   0.33523E+01   0.00000E+00   0.00000E+00   0.33523E+01   0.45230E+00   0.23687E+02   0.23956E-07   0.31891E-05   0.92715E+01   0.48714E+02  -0.17378E+01   0.72880E+01
   0.18382E-01   0.78307E-03   0.15331E+24   0.10195E-02   0.49983E+02  -0.14566E+01   0.13208E+01   0.33922E+01   0.00000E+00   0.00000E+00   0.33922E+01   0.46171E+00   0.37737E+02   0.24345E-07   0.32602E-05   0.83516E+01   0.50021E+02  -0.16693E+01   0.71799E+01
   0.17727E-01   0.89352E-03   0.15265E+24   0.10151E-02   0.47521E+02  -0.17308E+01   0.56939E+00   0.33902E+01   0.00000E+00   0.00000E+00   0.33902E+01   0.43908E+00   0.22266E+02   0.24553E-07   0.32871E-05   0.76356E+01   0.47556E+02  -0.20859E+01   0.71446E+01
   0.18055E-01   0.45370E-03   0.15364E+24   0.10217E-02   0.52387E+02  -0.15895E+01  -0.21089E+01   0.33836E+01   0.00000E+00   0.00000E+00   0.33836E+01   0.48478E+00   0.11205E+02   0.10000E+11   0.91775E-05   0.00000E+00   0.52454E+02  -0.17379E+01   0.71769E+01
   0.18327E-01   0.11148E-02   0.14416E+24   0.95865E-03   0.46419E+02  -0.71630E-01   0.25030E+00   0.34799E+01   0.00000E+00   0.00000E+00   0.34799E+01   0.42303E+00   0.63742E+02   0.10000E+11   0.97810E-05   0.00000E+00   0.46419E+02  -0.88414E-01   0.69258E+01
   0.17564E-01   0.62626E-03   0.16000E+24   0.10640E-02   0.46692E+02  -0.94230E-01   0.41456E+00   0.33577E+01   0.00000E+00   0.00000E+00   0.33577E+01   0.43321E+00   0.32091E+02   0.23369E-07   0.31135E-05   0.95477E+01   0.46694E+02  -0.11563E+00   0.74171E+01
   0.17782E-01   0.11148E-02   0.14425E+24   0.95927E-03   0.44794E+02  -0.10406E+01   0.11899E+01   0.34770E+01   0.00000E+00   0.00000E+00   0.34770E+01   0.40864E+00   0.38796E+02   0.26212E-07   0.35539E-05   0.63556E+01   0.44822E+02  -0.13308E+01   0.69245E+01
   0.18000E-01   0.11148E-02   0.14469E+24   0.96220E-03   0.44151E+02  -0.13852E+01  -0.39403E+00   0.34836E+01   0.00000E+00   0.00000E+00   0.34836E+01   0.40236E+00   0.52767E+02   0.25816E-07   0.35035E-05   0.66739E+01   0.44175E+02  -0.17970E+01   0.69589E+01
   0.17618E-01   0.28148E-03   0.17049E+24   0.11338E-02   0.47842E+02  -0.11078E+01  -0.75434E+00   0.32915E+01   0.00000E+00   0.00000E+00   0.32915E+01   0.44848E+00   0.11657E+02   0.22726E-07   0.29979E-05   0.14751E+02   0.47861E+02  -0.13264E+01   0.77474E+01
   0.19145E-01   0.61279E-03   0.15249E+24   0.10141E-02   0.53051E+02  -0.11893E+01   0.96827E-01   0.33303E+01   0.00000E+00   0.00000E+00   0.33303E+01   0.49433E+00   0.22938E+02   0.24850E-07   0.32973E-05   0.92651E+01   0.53064E+02  -0.12842E+01   0.70112E+01
   0.18818E-01   0.72365E-03   0.14929E+24   0.99279E-03   0.52735E+02  -0.11671E+01   0.15708E+01   0.34094E+01   0.00000E+00   0.00000E+00   0.34094E+01   0.48586E+00   0.26540E+02   0.24591E-07   0.33015E-05   0.84639E+01   0.52771E+02  -0.12678E+01   0.70272E+01
   0.19091E-01   0.22222E-03   0.16201E+24   0.10774E-02   0.53981E+02  -0.15533E+00   0.79923E+00   0.32938E+01   0.00000E+00   0.00000E+00   0.32938E+01   0.50570E+00   0.12555E+02   0.24275E-07   0.32033E-05   0.13389E+02   0.53987E+02  -0.16487E+00   0.73675E+01
   0.18764E-01   0.34568E-03   0.16279E+24   0.10826E-02   0.52289E+02  -0.26102E+00  -0.92301E+00   0.32910E+01   0.00000E+00   0.00000E+00   0.32910E+01   0.49009E+00   0.35619E+02   0.23198E-07   0.30599E-05   0.12566E+02   0.52298E+02  -0.28601E+00   0.73964E+01
   0.19418E-01   0.73504E-03   0.14597E+24   0.97068E-03   0.53149E+02   0.10880E+00  -0.21114E+00   0.33735E+01   0.00000E+00   0.00000E+00   0.33735E+01   0.49194E+00   0.34599E+02   0.26149E-07   0.34922E-05   0.78498E+01   0.53150E+02   0.11729E+00   0.67984E+01
   0.18818E-01   0.14815E-03   0.17077E+24   0.11356E-02   0.52018E+02  -0.53067E+00  -0.13972E+01   0.32822E+01   0.00000E+00   0.00000E+00   0.32822E+01   0.48831E+00   0.13233E+02   0.24747E-07   0.32598E-05   0.15786E+02   0.52039E+02  -0.58449E+00   0.77384E+01
   0.19091E-01   0.83457E-03   0.14765E+24   0.98186E-03   0.50666E+02   0.47360E+00  -0.77693E+00   0.34002E+01   0.00000E+00   0.00000E+00   0.34002E+01   0.46719E+00   0.20191E+02   0.24638E-07   0.33034E-05   0.78473E+01   0.50674E+02   0.53556E+00   0.69310E+01
   0.18873E-01   0.10041E-02   0.14410E+24   0.95826E-03   0.47328E+02  -0.56445E+00   0.66336E+00   0.34644E+01   0.00000E+00   0.00000E+00   0.34644E+01   0.43234E+00   0.47293E+02   0.25787E-07   0.34899E-05   0.70943E+01   0.47336E+02  -0.68330E+00   0.68923E+01
   0.19364E-01   0.45370E-03   0.15894E+24   0.10570E-02   0.55081E+02  -0.41687E+00   0.20758E+00   0.33131E+01   0.00000E+00   0.00000E+00   0.33131E+01   0.51446E+00   0.21736E+02   0.24201E-07   0.32029E-05   0.11133E+02   0.55083E+02  -0.43362E+00   0.72703E+01
   0.19364E-01   0.14815E-03   0.16361E+24   0.10880E-02   0.54780E+02   0.46269E+00  -0.83971E+00   0.32493E+01   0.00000E+00   0.00000E+00   0.32493E+01   0.51670E+00   0.82036E+01   0.27118E-07   0.35543E-05   0.13407E+02   0.54788E+02   0.48393E+00   0.73396E+01
   0.19473E-01   0.10041E-02   0.14126E+24   0.93938E-03   0.50181E+02  -0.53136E+00  -0.44516E+00   0.34476E+01   0.00000E+00   0.00000E+00   0.34476E+01   0.45948E+00   0.57308E+02   0.26511E-07   0.35792E-05   0.70283E+01   0.50186E+02  -0.60667E+00   0.67237E+01
   0.18600E-01   0.95425E-03   0.14665E+24   0.97524E-03   0.47647E+02  -0.91987E+00   0.87756E+00   0.34451E+01   0.00000E+00   0.00000E+00   0.34451E+01   0.43656E+00   0.69523E+02   0.25473E-07   0.34377E-05   0.71769E+01   0.47664E+02  -0.11060E+01   0.69753E+01
   0.19309E-01   0.83457E-03   0.14865E+24   0.98851E-03   0.51103E+02  -0.16856E+01  -0.21341E+01   0.33882E+01   0.00000E+00   0.00000E+00   0.33882E+01   0.47263E+00   0.20328E+02   0.25282E-07   0.33838E-05   0.77397E+01   0.51175E+02  -0.18892E+01   0.69535E+01
   0.19091E-01   0.39153E-03   0.15833E+24   0.10529E-02   0.54126E+02  -0.66813E+00  -0.30138E+01   0.33304E+01   0.00000E+00   0.00000E+00   0.33304E+01   0.50502E+00   0.10104E+02   0.23524E-07   0.31214E-05   0.11837E+02   0.54214E+02  -0.70723E+00   0.72801E+01
   0.19255E-01   0.56296E-03   0.15301E+24   0.10175E-02   0.53190E+02  -0.59360E+00   0.11738E+01   0.33336E+01   0.00000E+00   0.00000E+00   0.33336E+01   0.49541E+00   0.26505E+02   0.24702E-07   0.32793E-05   0.98915E+01   0.53207E+02  -0.63939E+00   0.70423E+01
   0.18709E-01   0.62626E-03   0.15466E+24   0.10285E-02   0.51536E+02  -0.58425E+00   0.90972E+00   0.33460E+01   0.00000E+00   0.00000E+00   0.33460E+01   0.47907E+00   0.45120E+02   0.24916E-07   0.33139E-05   0.91965E+01   0.51548E+02  -0.64952E+00   0.71447E+01
   0.18927E-01   0.56296E-03   0.15396E+24   0.10238E-02   0.52609E+02  -0.39492E+00   0.69782E+00   0.33444E+01   0.00000E+00   0.00000E+00   0.33444E+01   0.48911E+00   0.26668E+02   0.24679E-07   0.32816E-05   0.98186E+01   0.52616E+02  -0.43009E+00   0.71086E+01
   0.19582E-01   0.73504E-03   0.14833E+24   0.98637E-03   0.52460E+02  -0.28026E+00   0.40930E+00   0.33723E+01   0.00000E+00   0.00000E+00   0.33723E+01   0.48566E+00   0.26369E+02   0.25294E-07   0.33774E-05   0.84702E+01   0.52462E+02  -0.30610E+00   0.69058E+01
   0.19255E-01   0.10041E-02   0.14152E+24   0.94108E-03   0.49034E+02  -0.17664E+01  -0.38947E+00   0.34514E+01   0.00000E+00   0.00000E+00   0.34514E+01   0.44900E+00   0.23223E+02   0.26063E-07   0.35206E-05   0.70797E+01   0.49068E+02  -0.20632E+01   0.67433E+01
   0.19145E-01   0.72365E-03   0.14622E+24   0.97238E-03   0.51789E+02  -0.68514E+00  -0.25290E+00   0.34111E+01   0.00000E+00   0.00000E+00   0.34111E+01   0.47674E+00   0.25995E+02   0.25322E-07   0.34005E-05   0.83716E+01   0.51794E+02  -0.75795E+00   0.68862E+01
   0.19364E-01   0.28148E-03   0.15649E+24   0.10406E-02   0.55840E+02  -0.11099E+01  -0.11337E+01   0.32598E+01   0.00000E+00   0.00000E+00   0.32598E+01   0.52599E+00   0.10700E+02   0.24316E-07   0.31921E-05   0.13921E+02   0.55863E+02  -0.11386E+01   0.70427E+01
   0.18927E-01   0.83457E-03   0.14459E+24   0.96150E-03   0.50623E+02  -0.14597E+00   0.11105E+01   0.33808E+01   0.00000E+00   0.00000E+00   0.33808E+01   0.46816E+00   0.98860E+01   0.25667E-07   0.34315E-05   0.75706E+01   0.50635E+02  -0.16520E+00   0.67486E+01
   0.18764E-01   0.83457E-03   0.14986E+24   0.99656E-03   0.48639E+02  -0.10864E+01  -0.13546E+01   0.34235E+01   0.00000E+00   0.00000E+00   0.34235E+01   0.44718E+00   0.20493E+02   0.25390E-07   0.34159E-05   0.77653E+01   0.48670E+02  -0.12795E+01   0.70831E+01
   0.19636E-01   0.14815E-03   0.16342E+24   0.10867E-02   0.56407E+02  -0.31660E+00   0.25464E+01   0.33202E+01   0.00000E+00   0.00000E+00   0.33202E+01   0.52680E+00   0.74491E+01   0.29459E-07   0.39030E-05   0.12146E+02   0.56465E+02  -0.32159E+00   0.74909E+01