VARIABLES = "X","Y","ND","D","U","V","W","TTR","TRT","TVB","TOV","MA","MC","MCT","MFP","SOF","FSP","ANG","P"
 ZONE I=         848  F=POINT
   0.16036E-01   0.66667E-03   0.86798E+22   0.57720E-04   0.23807E+02  -0.15980E+01   0.52404E-01   0.39555E+01   0.00000E+00   0.00000E+00   0.39555E+01   0.20396E+00   0.18556E+02   0.40284E-06   0.58254E-04   0.20171E+01   0.23861E+02  -0.38401E+01   0.47399E+00
   0.15327E-01   0.66667E-03   0.87721E+22   0.58335E-04   0.20306E+02  -0.16752E+01   0.85349E-01   0.39905E+01   0.00000E+00   0.00000E+00   0.39905E+01   0.17339E+00   0.20713E+02   0.39961E-06   0.58042E-04   0.20821E+01   0.20375E+02  -0.47161E+01   0.48328E+00
   0.16909E-01   0.66667E-03   0.85247E+22   0.56689E-04   0.26642E+02  -0.67408E+00   0.12366E+00   0.39283E+01   0.00000E+00   0.00000E+00   0.39283E+01   0.22859E+00   0.30776E+02   0.40616E-06   0.58532E-04   0.23021E+01   0.26651E+02  -0.14494E+01   0.46233E+00
   0.17891E-01   0.59259E-03   0.83590E+22   0.55587E-04   0.29252E+02  -0.35558E+00   0.27932E+00   0.39075E+01   0.00000E+00   0.00000E+00   0.39075E+01   0.25160E+00   0.14822E+02   0.42074E-06   0.60472E-04   0.22743E+01   0.29256E+02  -0.69643E+00   0.45094E+00
   0.18327E-01   0.79202E-03   0.81559E+22   0.54237E-04   0.27252E+02   0.10053E+00   0.34372E+00   0.39036E+01   0.00000E+00   0.00000E+00   0.39036E+01   0.23451E+00   0.18514E+02   0.43237E-06   0.62113E-04   0.17094E+01   0.27255E+02   0.21135E+00   0.43955E+00
   0.18982E-01   0.66667E-03   0.80358E+22   0.53438E-04   0.29819E+02  -0.10772E+00   0.76929E-01   0.38924E+01   0.00000E+00   0.00000E+00   0.38924E+01   0.25695E+00   0.19890E+02   0.43597E-06   0.62540E-04   0.20341E+01   0.29820E+02  -0.20698E+00   0.43183E+00
   0.20291E-01   0.59259E-03   0.77229E+22   0.51357E-04   0.31721E+02  -0.34521E+00   0.12773E+00   0.38785E+01   0.00000E+00   0.00000E+00   0.38785E+01   0.27384E+00   0.13131E+02   0.45690E-06   0.65426E-04   0.21048E+01   0.31723E+02  -0.62350E+00   0.41354E+00
   0.19800E-01   0.74074E-03   0.77950E+22   0.51837E-04   0.29777E+02   0.39391E-01  -0.40797E-01   0.38935E+01   0.00000E+00   0.00000E+00   0.38935E+01   0.25655E+00   0.18121E+02   0.44872E-06   0.64379E-04   0.19391E+01   0.29777E+02   0.75793E-01   0.41901E+00
   0.21273E-01   0.59259E-03   0.74701E+22   0.49676E-04   0.32885E+02  -0.43427E-01  -0.55183E-01   0.38738E+01   0.00000E+00   0.00000E+00   0.38738E+01   0.28404E+00   0.20260E+02   0.46954E-06   0.67195E-04   0.20780E+01   0.32885E+02  -0.75664E-01   0.39952E+00
   0.22418E-01   0.66667E-03   0.71678E+22   0.47666E-04   0.33552E+02  -0.21075E+00  -0.23362E+00   0.38696E+01   0.00000E+00   0.00000E+00   0.38696E+01   0.28998E+00   0.24668E+02   0.48775E-06   0.69763E-04   0.21899E+01   0.33554E+02  -0.35988E+00   0.38293E+00
   0.23455E-01   0.44444E-03   0.69362E+22   0.46126E-04   0.36927E+02   0.10299E+00  -0.66067E-02   0.38462E+01   0.00000E+00   0.00000E+00   0.38462E+01   0.32010E+00   0.11034E+02   0.50599E-06   0.72153E-04   0.23049E+01   0.36927E+02   0.15979E+00   0.36832E+00
   0.23509E-01   0.90741E-03   0.67629E+22   0.44973E-04   0.33564E+02  -0.43023E-01  -0.21558E+00   0.38799E+01   0.00000E+00   0.00000E+00   0.38799E+01   0.28969E+00   0.14859E+02   0.51756E-06   0.74125E-04   0.15201E+01   0.33565E+02  -0.73443E-01   0.36225E+00
   0.24600E-01   0.66667E-03   0.65356E+22   0.43462E-04   0.36582E+02   0.14905E+00  -0.10182E+00   0.38608E+01   0.00000E+00   0.00000E+00   0.38608E+01   0.31651E+00   0.22314E+02   0.53767E-06   0.76815E-04   0.17808E+01   0.36583E+02   0.23344E+00   0.34836E+00
   0.25636E-01   0.74074E-03   0.62508E+22   0.41568E-04   0.36981E+02  -0.14439E+00   0.75447E-01   0.38544E+01   0.00000E+00   0.00000E+00   0.38544E+01   0.32023E+00   0.28465E+02   0.56210E-06   0.80239E-04   0.18152E+01   0.36982E+02  -0.22371E+00   0.33263E+00
   0.26727E-01   0.66667E-03   0.58981E+22   0.39222E-04   0.40639E+02  -0.18743E+00  -0.73412E-02   0.38376E+01   0.00000E+00   0.00000E+00   0.38376E+01   0.35267E+00   0.21777E+02   0.59313E-06   0.84483E-04   0.17283E+01   0.40639E+02  -0.26425E+00   0.31249E+00
   0.27818E-01   0.66667E-03   0.55963E+22   0.37215E-04   0.42464E+02   0.40460E-01   0.27386E-01   0.38278E+01   0.00000E+00   0.00000E+00   0.38278E+01   0.36898E+00   0.20025E+02   0.61971E-06   0.88158E-04   0.17708E+01   0.42464E+02   0.54591E-01   0.29575E+00
   0.28855E-01   0.66667E-03   0.52331E+22   0.34800E-04   0.45530E+02  -0.46807E-01  -0.10324E+00   0.38137E+01   0.00000E+00   0.00000E+00   0.38137E+01   0.39635E+00   0.18582E+02   0.65691E-06   0.93276E-04   0.17701E+01   0.45530E+02  -0.58903E-01   0.27553E+00
   0.29945E-01   0.74074E-03   0.48774E+22   0.32435E-04   0.48118E+02   0.39237E-01  -0.23061E+00   0.37965E+01   0.00000E+00   0.00000E+00   0.37965E+01   0.41983E+00   0.21410E+02   0.72237E-06   0.10234E-03   0.16236E+01   0.48118E+02   0.46721E-01   0.25564E+00
   0.31145E-01   0.66667E-03   0.44196E+22   0.29390E-04   0.53974E+02   0.12462E+00  -0.15588E+00   0.37493E+01   0.00000E+00   0.00000E+00   0.37493E+01   0.47388E+00   0.13377E+02   0.81860E-06   0.11525E-03   0.14089E+01   0.53975E+02   0.13229E+00   0.22877E+00
   0.32455E-01   0.66667E-03   0.39838E+22   0.26492E-04   0.58453E+02   0.31047E+00   0.19767E-01   0.36947E+01   0.00000E+00   0.00000E+00   0.36947E+01   0.51698E+00   0.19322E+02   0.86141E-06   0.12039E-03   0.15568E+01   0.58454E+02   0.30432E+00   0.20321E+00
   0.34364E-01   0.74074E-03   0.30882E+22   0.20536E-04   0.72213E+02   0.10885E+01  -0.16357E+00   0.35445E+01   0.00000E+00   0.00000E+00   0.35445E+01   0.65214E+00   0.18567E+02   0.11814E-05   0.16172E-03   0.12240E+01   0.72221E+02   0.86359E+00   0.15112E+00
   0.36818E-01   0.74074E-03   0.23922E+22   0.15908E-04   0.65405E+02   0.47832E+01  -0.10484E+00   0.36491E+01   0.00000E+00   0.00000E+00   0.36491E+01   0.58362E+00   0.14329E+02   0.14870E-05   0.20653E-03   0.10394E+01   0.65580E+02   0.41827E+01   0.12052E+00
   0.39873E-01   0.81482E-03   0.22411E+22   0.14903E-04   0.35444E+02   0.26783E+01  -0.71569E-01   0.39125E+01   0.00000E+00   0.00000E+00   0.39125E+01   0.30550E+00   0.20094E+02   0.15627E-05   0.22475E-03   0.96697E+00   0.35545E+02   0.43213E+01   0.12106E+00
   0.42982E-01   0.74074E-03   0.22097E+22   0.14694E-04   0.20471E+02   0.90712E+00   0.18461E+00   0.39578E+01   0.00000E+00   0.00000E+00   0.39578E+01   0.17511E+00   0.17163E+02   0.15710E-05   0.22724E-03   0.10020E+01   0.20492E+02   0.25372E+01   0.12074E+00
   0.46418E-01   0.74074E-03   0.22069E+22   0.14676E-04   0.14482E+02   0.29422E+00   0.79844E-01   0.39179E+01   0.00000E+00   0.00000E+00   0.39179E+01   0.12441E+00   0.16598E+02   0.15792E-05   0.22728E-03   0.94734E+00   0.14485E+02   0.11638E+01   0.11937E+00
   0.49691E-01   0.74074E-03   0.21820E+22   0.14511E-04   0.12801E+02   0.27302E-01  -0.14432E+00   0.39404E+01   0.00000E+00   0.00000E+00   0.39404E+01   0.10964E+00   0.18520E+02   0.15938E-05   0.23004E-03   0.99764E+00   0.12802E+02   0.12220E+00   0.11871E+00
   0.52691E-01   0.74074E-03   0.21761E+22   0.14471E-04   0.12555E+02   0.15655E-01   0.24120E+00   0.39197E+01   0.00000E+00   0.00000E+00   0.39197E+01   0.10783E+00   0.14889E+02   0.15100E-05   0.21737E-03   0.10962E+01   0.12558E+02   0.71441E-01   0.11776E+00
   0.55364E-01   0.74074E-03   0.21681E+22   0.14418E-04   0.12492E+02  -0.14566E-01   0.38408E-01   0.39156E+01   0.00000E+00   0.00000E+00   0.39156E+01   0.10732E+00   0.14745E+02   0.16099E-05   0.23163E-03   0.99978E+00   0.12492E+02  -0.66808E-01   0.11720E+00
   0.58364E-01   0.66667E-03   0.21451E+22   0.14265E-04   0.12663E+02  -0.16462E+00  -0.88132E-01   0.39110E+01   0.00000E+00   0.00000E+00   0.39110E+01   0.10886E+00   0.15029E+02   0.16326E-05   0.23476E-03   0.99269E+00   0.12664E+02  -0.74481E+00   0.11582E+00
   0.61691E-01   0.74074E-03   0.21311E+22   0.14171E-04   0.12331E+02  -0.38399E-01   0.16572E+00   0.39162E+01   0.00000E+00   0.00000E+00   0.39162E+01   0.10594E+00   0.17592E+02   0.16352E-05   0.23529E-03   0.97985E+00   0.12332E+02  -0.17843E+00   0.11522E+00
   0.65018E-01   0.74074E-03   0.21176E+22   0.14082E-04   0.12516E+02  -0.10101E+00  -0.22012E+00   0.39078E+01   0.00000E+00   0.00000E+00   0.39078E+01   0.10765E+00   0.16496E+02   0.16523E-05   0.23749E-03   0.95147E+00   0.12518E+02  -0.46242E+00   0.11424E+00
   0.68073E-01   0.81482E-03   0.20918E+22   0.13910E-04   0.12935E+02   0.11231E+00  -0.18185E+00   0.39215E+01   0.00000E+00   0.00000E+00   0.39215E+01   0.11106E+00   0.17783E+02   0.16671E-05   0.24004E-03   0.91122E+00   0.12937E+02   0.49749E+00   0.11325E+00
   0.71509E-01   0.74074E-03   0.20737E+22   0.13790E-04   0.13066E+02  -0.11086E+00   0.17517E+00   0.39296E+01   0.00000E+00   0.00000E+00   0.39296E+01   0.11206E+00   0.17052E+02   0.16779E-05   0.24184E-03   0.93421E+00   0.13068E+02  -0.48612E+00   0.11250E+00
   0.74673E-01   0.81482E-03   0.20613E+22   0.13707E-04   0.13386E+02   0.54229E-01   0.16482E+00   0.39228E+01   0.00000E+00   0.00000E+00   0.39228E+01   0.11490E+00   0.18538E+02   0.16908E-05   0.24349E-03   0.90584E+00   0.13387E+02   0.23212E+00   0.11164E+00
   0.78055E-01   0.74074E-03   0.20431E+22   0.13586E-04   0.13118E+02  -0.39541E-01   0.12674E+00   0.39207E+01   0.00000E+00   0.00000E+00   0.39207E+01   0.11263E+00   0.15674E+02   0.17104E-05   0.24625E-03   0.10021E+01   0.13119E+02  -0.17271E+00   0.11059E+00
   0.81218E-01   0.74074E-03   0.20243E+22   0.13462E-04   0.13672E+02  -0.25073E+00  -0.67041E-01   0.39205E+01   0.00000E+00   0.00000E+00   0.39205E+01   0.11741E+00   0.16148E+02   0.17244E-05   0.24827E-03   0.94964E+00   0.13675E+02  -0.10506E+01   0.10957E+00
   0.85691E-01   0.74074E-03   0.19350E+22   0.12868E-04   0.27612E+02  -0.30155E+01   0.37847E+00   0.38979E+01   0.00000E+00   0.00000E+00   0.38979E+01   0.23919E+00   0.14660E+02   0.18045E-05   0.25905E-03   0.10111E+01   0.27779E+02  -0.62325E+01   0.10413E+00
   0.89727E-01   0.11111E-02   0.68304E+21   0.45422E-05   0.13523E+03   0.20298E+02   0.48796E-01   0.23095E+01   0.00000E+00   0.00000E+00   0.23095E+01   0.15297E+01   0.10013E+02   0.62041E-05   0.68553E-03   0.51841E+00   0.13674E+03   0.85363E+01   0.21778E-01
   0.15218E-01   0.15157E-02   0.90443E+22   0.60144E-04   0.16283E+02  -0.20644E+01   0.40208E-01   0.40235E+01   0.00000E+00   0.00000E+00   0.40235E+01   0.13910E+00   0.36527E+02   0.38547E-06   0.56219E-04   0.14179E+01   0.16413E+02  -0.72256E+01   0.50239E+00
   0.15655E-01   0.17870E-02   0.89183E+22   0.59307E-04   0.12015E+02  -0.10109E+01   0.89567E-02   0.39978E+01   0.00000E+00   0.00000E+00   0.39978E+01   0.10252E+00   0.26343E+02   0.38628E-06   0.56158E-04   0.12311E+01   0.12057E+02  -0.48096E+01   0.49223E+00
   0.15709E-01   0.12525E-02   0.87762E+22   0.58362E-04   0.20939E+02  -0.24072E+01   0.73120E-01   0.39872E+01   0.00000E+00   0.00000E+00   0.39872E+01   0.17945E+00   0.24563E+02   0.39315E-06   0.57081E-04   0.14535E+01   0.21077E+02  -0.65580E+01   0.48311E+00
   0.16145E-01   0.14252E-02   0.87008E+22   0.57861E-04   0.18551E+02  -0.10819E+01   0.13471E+00   0.39687E+01   0.00000E+00   0.00000E+00   0.39687E+01   0.15858E+00   0.32443E+02   0.40109E-06   0.58098E-04   0.12743E+01   0.18583E+02  -0.33378E+01   0.47673E+00
   0.16255E-01   0.18911E-02   0.86483E+22   0.57511E-04   0.78323E+01  -0.74242E-01   0.55978E-01   0.39866E+01   0.00000E+00   0.00000E+00   0.39866E+01   0.66691E-01   0.14783E+02   0.40097E-06   0.58211E-04   0.11508E+01   0.78328E+01  -0.54309E+00   0.47599E+00
   0.16800E-01   0.16889E-02   0.85200E+22   0.56658E-04   0.13609E+02  -0.28015E+00   0.48205E-01   0.39764E+01   0.00000E+00   0.00000E+00   0.39764E+01   0.11604E+00   0.30215E+02   0.40645E-06   0.58932E-04   0.12953E+01   0.13612E+02  -0.11793E+01   0.46774E+00
   0.17236E-01   0.17372E-02   0.83112E+22   0.55269E-04   0.10030E+02  -0.89691E-01  -0.86676E-01   0.39911E+01   0.00000E+00   0.00000E+00   0.39911E+01   0.85357E-01   0.23223E+02   0.41341E-06   0.60052E-04   0.11757E+01   0.10031E+02  -0.51234E+00   0.45796E+00
   0.16909E-01   0.12979E-02   0.84232E+22   0.56015E-04   0.22064E+02  -0.63920E+00  -0.58798E-02   0.39512E+01   0.00000E+00   0.00000E+00   0.39512E+01   0.18878E+00   0.26148E+02   0.41283E-06   0.59667E-04   0.14419E+01   0.22073E+02  -0.16594E+01   0.45949E+00
   0.18164E-01   0.17372E-02   0.81028E+22   0.53883E-04   0.11790E+02   0.34919E+00  -0.26213E+00   0.39841E+01   0.00000E+00   0.00000E+00   0.39841E+01   0.10048E+00   0.27627E+02   0.42707E-06   0.61981E-04   0.11696E+01   0.11798E+02   0.16965E+01   0.44569E+00
   0.17673E-01   0.11444E-02   0.82639E+22   0.54955E-04   0.23370E+02  -0.33442E+00   0.12615E+00   0.39435E+01   0.00000E+00   0.00000E+00   0.39435E+01   0.20009E+00   0.24222E+02   0.42155E-06   0.60868E-04   0.15065E+01   0.23373E+02  -0.81981E+00   0.44993E+00
   0.17618E-01   0.17372E-02   0.82157E+22   0.54634E-04   0.12450E+02  -0.16165E+00  -0.24243E+00   0.39838E+01   0.00000E+00   0.00000E+00   0.39838E+01   0.10607E+00   0.22919E+02   0.42270E-06   0.61345E-04   0.11783E+01   0.12454E+02  -0.74386E+00   0.45186E+00
   0.18327E-01   0.12979E-02   0.81179E+22   0.53984E-04   0.22010E+02   0.21938E+00   0.78471E-01   0.39403E+01   0.00000E+00   0.00000E+00   0.39403E+01   0.18851E+00   0.15949E+02   0.42991E-06   0.62049E-04   0.13866E+01   0.22011E+02   0.57107E+00   0.44161E+00
   0.19200E-01   0.13172E-02   0.79034E+22   0.52557E-04   0.22255E+02  -0.24994E+00   0.88106E-01   0.39443E+01   0.00000E+00   0.00000E+00   0.39443E+01   0.19051E+00   0.34514E+02   0.44191E-06   0.63814E-04   0.13417E+01   0.22256E+02  -0.64345E+00   0.43038E+00
   0.19091E-01   0.18384E-02   0.79109E+22   0.52608E-04   0.86140E+01   0.26264E-01  -0.31063E-01   0.39832E+01   0.00000E+00   0.00000E+00   0.39832E+01   0.73375E-01   0.20518E+02   0.42872E-06   0.62213E-04   0.12105E+01   0.86141E+01   0.17469E+00   0.43504E+00
   0.18764E-01   0.15979E-02   0.79929E+22   0.53153E-04   0.15336E+02   0.17691E-01   0.61199E-02   0.39720E+01   0.00000E+00   0.00000E+00   0.39720E+01   0.13081E+00   0.30277E+02   0.43616E-06   0.63204E-04   0.12366E+01   0.15336E+02   0.66095E-01   0.43831E+00
   0.20182E-01   0.13172E-02   0.76326E+22   0.50757E-04   0.23143E+02  -0.15690E-01   0.28347E+00   0.39339E+01   0.00000E+00   0.00000E+00   0.39339E+01   0.19837E+00   0.40116E+02   0.45825E-06   0.66086E-04   0.12880E+01   0.23144E+02  -0.38844E-01   0.41454E+00
   0.20400E-01   0.18384E-02   0.75061E+22   0.49915E-04   0.93396E+01   0.10791E+00  -0.39283E-01   0.39882E+01   0.00000E+00   0.00000E+00   0.39882E+01   0.79510E-01   0.21658E+02   0.45830E-06   0.66548E-04   0.11143E+01   0.93403E+01   0.66198E+00   0.41329E+00
   0.19800E-01   0.16424E-02   0.77133E+22   0.51294E-04   0.13602E+02  -0.54956E-02   0.98612E-01   0.39779E+01   0.00000E+00   0.00000E+00   0.39779E+01   0.11594E+00   0.33824E+02   0.44912E-06   0.65130E-04   0.11676E+01   0.13602E+02  -0.23149E-01   0.42361E+00
   0.21273E-01   0.17870E-02   0.72917E+22   0.48490E-04   0.11398E+02   0.54418E-01   0.86632E-01   0.39828E+01   0.00000E+00   0.00000E+00   0.39828E+01   0.97098E-01   0.37526E+02   0.47392E-06   0.68769E-04   0.10972E+01   0.11399E+02   0.27355E+00   0.40095E+00
   0.21055E-01   0.13172E-02   0.74361E+22   0.49450E-04   0.23785E+02   0.40717E-01  -0.75294E-01   0.39246E+01   0.00000E+00   0.00000E+00   0.39246E+01   0.20411E+00   0.28812E+02   0.46970E-06   0.67658E-04   0.13815E+01   0.23785E+02   0.98082E-01   0.40292E+00
   0.21655E-01   0.12761E-02   0.72414E+22   0.48155E-04   0.25520E+02  -0.34291E-01  -0.38911E-01   0.39235E+01   0.00000E+00   0.00000E+00   0.39235E+01   0.21903E+00   0.21555E+02   0.48192E-06   0.69408E-04   0.13082E+01   0.25520E+02  -0.76987E-01   0.39225E+00
   0.22364E-01   0.17372E-02   0.70366E+22   0.46793E-04   0.11853E+02   0.71368E-01   0.14772E+00   0.39787E+01   0.00000E+00   0.00000E+00   0.39787E+01   0.10103E+00   0.35026E+02   0.49053E-06   0.71143E-04   0.10829E+01   0.11854E+02   0.34498E+00   0.38652E+00
   0.22527E-01   0.13611E-02   0.70366E+22   0.46794E-04   0.25099E+02   0.19324E+00   0.16817E+00   0.39215E+01   0.00000E+00   0.00000E+00   0.39215E+01   0.21547E+00   0.23480E+02   0.49514E-06   0.71293E-04   0.12886E+01   0.25100E+02   0.44112E+00   0.38097E+00
   0.21982E-01   0.13827E-02   0.71144E+22   0.47311E-04   0.22707E+02  -0.11735E+00   0.10419E+00   0.39449E+01   0.00000E+00   0.00000E+00   0.39449E+01   0.19436E+00   0.18874E+02   0.49005E-06   0.70770E-04   0.13226E+01   0.22708E+02  -0.29610E+00   0.38747E+00
   0.23236E-01   0.12525E-02   0.68286E+22   0.45410E-04   0.25468E+02  -0.23458E+00  -0.77200E-01   0.39222E+01   0.00000E+00   0.00000E+00   0.39222E+01   0.21863E+00   0.21416E+02   0.51176E-06   0.73693E-04   0.12875E+01   0.25469E+02  -0.52773E+00   0.36976E+00
   0.23345E-01   0.17870E-02   0.67448E+22   0.44853E-04   0.12122E+02   0.13664E+00   0.10689E-01   0.39835E+01   0.00000E+00   0.00000E+00   0.39835E+01   0.10326E+00   0.34772E+02   0.50903E-06   0.73870E-04   0.10714E+01   0.12123E+02   0.64581E+00   0.37094E+00
   0.23891E-01   0.13172E-02   0.66605E+22   0.44292E-04   0.26316E+02   0.19970E+00  -0.30587E-01   0.39212E+01   0.00000E+00   0.00000E+00   0.39212E+01   0.22593E+00   0.21283E+02   0.52766E-06   0.75973E-04   0.12028E+01   0.26317E+02   0.43478E+00   0.36057E+00
   0.24655E-01   0.14252E-02   0.64083E+22   0.42615E-04   0.26259E+02   0.82039E-01   0.19208E+00   0.39244E+01   0.00000E+00   0.00000E+00   0.39244E+01   0.22535E+00   0.29708E+02   0.54651E-06   0.78719E-04   0.11400E+01   0.26260E+02   0.17900E+00   0.34721E+00
   0.24764E-01   0.18384E-02   0.63252E+22   0.42062E-04   0.11086E+02   0.19868E+00  -0.21248E-02   0.39836E+01   0.00000E+00   0.00000E+00   0.39836E+01   0.94439E-01   0.14445E+02   0.54025E-06   0.78402E-04   0.10113E+01   0.11088E+02   0.10267E+01   0.34787E+00
   0.24164E-01   0.16889E-02   0.65401E+22   0.43492E-04   0.14991E+02   0.10108E+00  -0.17686E+00   0.39715E+01   0.00000E+00   0.00000E+00   0.39715E+01   0.12789E+00   0.24833E+02   0.52589E-06   0.76203E-04   0.10701E+01   0.14992E+02   0.38633E+00   0.35860E+00
   0.25745E-01   0.15979E-02   0.60594E+22   0.40295E-04   0.22472E+02   0.98743E-02   0.11094E+00   0.39519E+01   0.00000E+00   0.00000E+00   0.39519E+01   0.19218E+00   0.33974E+02   0.56960E-06   0.82332E-04   0.10743E+01   0.22473E+02   0.25176E-01   0.33060E+00
   0.25309E-01   0.15979E-02   0.62005E+22   0.41233E-04   0.17934E+02  -0.52954E-02   0.28403E+00   0.39725E+01   0.00000E+00   0.00000E+00   0.39725E+01   0.15298E+00   0.26399E+02   0.55735E-06   0.80771E-04   0.11001E+01   0.17936E+02  -0.16918E-01   0.34006E+00
   0.26727E-01   0.13611E-02   0.57862E+22   0.38478E-04   0.29221E+02  -0.61738E-01  -0.59868E-01   0.39129E+01   0.00000E+00   0.00000E+00   0.39129E+01   0.25113E+00   0.32126E+02   0.60169E-06   0.86540E-04   0.11082E+01   0.29221E+02  -0.12105E+00   0.31258E+00
   0.27000E-01   0.18384E-02   0.56951E+22   0.37872E-04   0.12699E+02   0.21196E+00  -0.17568E+00   0.39811E+01   0.00000E+00   0.00000E+00   0.39811E+01   0.10823E+00   0.15524E+02   0.60926E-06   0.88388E-04   0.98150E+00   0.12702E+02   0.95620E+00   0.31302E+00
   0.26345E-01   0.16889E-02   0.58688E+22   0.39027E-04   0.16027E+02   0.13486E+00  -0.93690E-01   0.39813E+01   0.00000E+00   0.00000E+00   0.39813E+01   0.13656E+00   0.21722E+02   0.58773E-06   0.85268E-04   0.10334E+01   0.16028E+02   0.48213E+00   0.32258E+00
   0.27818E-01   0.13611E-02   0.54701E+22   0.36376E-04   0.31519E+02   0.27859E+00  -0.47241E-01   0.39134E+01   0.00000E+00   0.00000E+00   0.39134E+01   0.27087E+00   0.28775E+02   0.64012E-06   0.92073E-04   0.11456E+01   0.31520E+02   0.50641E+00   0.29554E+00
   0.27818E-01   0.17372E-02   0.53960E+22   0.35884E-04   0.16512E+02   0.15594E+00  -0.46099E-01   0.39779E+01   0.00000E+00   0.00000E+00   0.39779E+01   0.14075E+00   0.29000E+02   0.63721E-06   0.92408E-04   0.95516E+00   0.16513E+02   0.54106E+00   0.29635E+00
   0.28855E-01   0.14900E-02   0.50976E+22   0.33899E-04   0.30148E+02  -0.20316E+00  -0.91332E-01   0.39268E+01   0.00000E+00   0.00000E+00   0.39268E+01   0.25865E+00   0.39502E+02   0.68807E-06   0.99139E-04   0.10035E+01   0.30149E+02  -0.38608E+00   0.27636E+00
   0.28855E-01   0.18384E-02   0.50821E+22   0.33796E-04   0.13669E+02   0.17680E+00  -0.64364E-01   0.39828E+01   0.00000E+00   0.00000E+00   0.39828E+01   0.11645E+00   0.17907E+02   0.67683E-06   0.98213E-04   0.88425E+00   0.13670E+02   0.74103E+00   0.27945E+00
   0.30000E-01   0.14252E-02   0.47195E+22   0.31385E-04   0.31415E+02   0.16339E+00  -0.40570E-01   0.39237E+01   0.00000E+00   0.00000E+00   0.39237E+01   0.26962E+00   0.34249E+02   0.73932E-06   0.10648E-03   0.96774E+00   0.31416E+02   0.29800E+00   0.25566E+00
   0.30000E-01   0.18911E-02   0.46759E+22   0.31095E-04   0.13759E+02   0.29885E+00  -0.10707E+00   0.39864E+01   0.00000E+00   0.00000E+00   0.39864E+01   0.11718E+00   0.14494E+02   0.72768E-06   0.10564E-03   0.88905E+00   0.13762E+02   0.12443E+01   0.25735E+00
   0.31145E-01   0.16889E-02   0.42831E+22   0.28483E-04   0.22070E+02   0.18552E+00   0.13366E+00   0.39635E+01   0.00000E+00   0.00000E+00   0.39635E+01   0.18847E+00   0.28798E+02   0.80287E-06   0.11622E-03   0.83799E+00   0.22071E+02   0.48162E+00   0.23437E+00
   0.30982E-01   0.12099E-02   0.44436E+22   0.29550E-04   0.41879E+02   0.39792E+00  -0.47250E-01   0.38494E+01   0.00000E+00   0.00000E+00   0.38494E+01   0.36289E+00   0.22322E+02   0.79424E-06   0.11330E-03   0.99438E+00   0.41881E+02   0.54438E+00   0.23615E+00
   0.32127E-01   0.15556E-02   0.39437E+22   0.26226E-04   0.34697E+02   0.14987E+00   0.12886E+00   0.39075E+01   0.00000E+00   0.00000E+00   0.39075E+01   0.29841E+00   0.42192E+02   0.88583E-06   0.12732E-03   0.82612E+00   0.34698E+02   0.24747E+00   0.21275E+00
   0.33218E-01   0.12734E-02   0.35022E+22   0.23290E-04   0.46449E+02   0.47372E+00  -0.19585E-01   0.38261E+01   0.00000E+00   0.00000E+00   0.38261E+01   0.40372E+00   0.31849E+02   0.10112E-05   0.14382E-03   0.98722E+00   0.46452E+02   0.58431E+00   0.18500E+00
   0.33164E-01   0.18911E-02   0.34167E+22   0.22721E-04   0.20429E+02   0.27629E+00   0.85685E-02   0.39684E+01   0.00000E+00   0.00000E+00   0.39684E+01   0.17435E+00   0.12195E+02   0.10081E-05   0.14602E-03   0.73865E+00   0.20431E+02   0.77483E+00   0.18719E+00
   0.34418E-01   0.16508E-02   0.28682E+22   0.19074E-04   0.46143E+02   0.18205E+01  -0.45350E-01   0.38345E+01   0.00000E+00   0.00000E+00   0.38345E+01   0.40091E+00   0.39094E+02   0.12128E-05   0.17268E-03   0.71712E+00   0.46179E+02   0.22594E+01   0.15184E+00
   0.35727E-01   0.13481E-02   0.23922E+22   0.15908E-04   0.58295E+02   0.87408E+01   0.70426E-01   0.37201E+01   0.00000E+00   0.00000E+00   0.37201E+01   0.51956E+00   0.30892E+02   0.14898E-05   0.20893E-03   0.71366E+00   0.58947E+02   0.85274E+01   0.12286E+00
   0.36436E-01   0.17284E-02   0.22478E+22   0.14948E-04   0.38710E+02   0.89925E+01  -0.78846E-01   0.38845E+01   0.00000E+00   0.00000E+00   0.38845E+01   0.34279E+00   0.29540E+02   0.15459E-05   0.22154E-03   0.57065E+00   0.39741E+02   0.13078E+02   0.12055E+00
   0.37745E-01   0.14815E-02   0.22714E+22   0.15105E-04   0.41225E+02   0.68160E+01  -0.21208E+00   0.38697E+01   0.00000E+00   0.00000E+00   0.38697E+01   0.36111E+00   0.35441E+02   0.15367E-05   0.21980E-03   0.67003E+00   0.41785E+02   0.93883E+01   0.12135E+00
   0.38727E-01   0.15105E-02   0.22552E+22   0.14997E-04   0.33968E+02   0.58975E+01  -0.88269E-01   0.39215E+01   0.00000E+00   0.00000E+00   0.39215E+01   0.29597E+00   0.31858E+02   0.15364E-05   0.22122E-03   0.68396E+00   0.34476E+02   0.98496E+01   0.12210E+00
   0.39818E-01   0.17284E-02   0.22533E+22   0.14985E-04   0.27202E+02   0.51965E+01  -0.21907E+00   0.39537E+01   0.00000E+00   0.00000E+00   0.39537E+01   0.23678E+00   0.28154E+02   0.15270E-05   0.22077E-03   0.57742E+00   0.27694E+02   0.10815E+02   0.12300E+00
   0.40855E-01   0.15105E-02   0.22440E+22   0.14922E-04   0.24139E+02   0.36522E+01  -0.11535E+00   0.39664E+01   0.00000E+00   0.00000E+00   0.39664E+01   0.20840E+00   0.28784E+02   0.15300E-05   0.22156E-03   0.60973E+00   0.24414E+02   0.86034E+01   0.12288E+00
   0.42218E-01   0.15840E-02   0.22442E+22   0.14924E-04   0.19293E+02   0.29291E+01   0.10956E+00   0.39709E+01   0.00000E+00   0.00000E+00   0.39709E+01   0.16648E+00   0.20807E+02   0.15442E-05   0.22374E-03   0.71491E+00   0.19515E+02   0.86328E+01   0.12303E+00
   0.41618E-01   0.14850E-02   0.22442E+22   0.14924E-04   0.21668E+02   0.31455E+01   0.13861E-01   0.39696E+01   0.00000E+00   0.00000E+00   0.39696E+01   0.18682E+00   0.19897E+02   0.15247E-05   0.22088E-03   0.57995E+00   0.21896E+02   0.82595E+01   0.12299E+00
   0.43091E-01   0.17284E-02   0.22540E+22   0.14989E-04   0.16928E+02   0.20457E+01  -0.84766E-02   0.39680E+01   0.00000E+00   0.00000E+00   0.39680E+01   0.14552E+00   0.29642E+02   0.15310E-05   0.22175E-03   0.61967E+00   0.17052E+02   0.68904E+01   0.12348E+00
   0.44291E-01   0.14815E-02   0.22429E+22   0.14915E-04   0.15563E+02   0.12693E+01   0.10332E+00   0.39604E+01   0.00000E+00   0.00000E+00   0.39604E+01   0.13339E+00   0.35844E+02   0.15403E-05   0.22288E-03   0.70007E+00   0.15615E+02   0.46626E+01   0.12263E+00
   0.45327E-01   0.15833E-02   0.22379E+22   0.14882E-04   0.13782E+02   0.90041E+00  -0.58402E-01   0.39699E+01   0.00000E+00   0.00000E+00   0.39699E+01   0.11784E+00   0.37111E+02   0.15438E-05   0.22365E-03   0.68292E+00   0.13811E+02   0.37380E+01   0.12265E+00
   0.46309E-01   0.16217E-02   0.22394E+22   0.14892E-04   0.13186E+02   0.66188E+00   0.39056E-01   0.39592E+01   0.00000E+00   0.00000E+00   0.39592E+01   0.11280E+00   0.25122E+02   0.15335E-05   0.22186E-03   0.57494E+00   0.13203E+02   0.28736E+01   0.12241E+00
   0.47400E-01   0.15105E-02   0.22315E+22   0.14839E-04   0.12541E+02   0.51158E+00   0.86911E-01   0.39613E+01   0.00000E+00   0.00000E+00   0.39613E+01   0.10721E+00   0.36974E+02   0.15461E-05   0.22374E-03   0.67627E+00   0.12551E+02   0.23360E+01   0.12204E+00
   0.48545E-01   0.14815E-02   0.22233E+22   0.14785E-04   0.12351E+02   0.23118E+00  -0.25069E+00   0.39604E+01   0.00000E+00   0.00000E+00   0.39604E+01   0.10555E+00   0.34721E+02   0.15524E-05   0.22463E-03   0.67063E+00   0.12356E+02   0.10723E+01   0.12156E+00
   0.49691E-01   0.17284E-02   0.22226E+22   0.14780E-04   0.11948E+02   0.24858E+00   0.65839E-01   0.39628E+01   0.00000E+00   0.00000E+00   0.39628E+01   0.10206E+00   0.27040E+02   0.15440E-05   0.22348E-03   0.58154E+00   0.11950E+02   0.11919E+01   0.12160E+00
   0.50782E-01   0.15105E-02   0.22251E+22   0.14797E-04   0.11843E+02  -0.18240E+00  -0.18422E+00   0.39555E+01   0.00000E+00   0.00000E+00   0.39555E+01   0.10126E+00   0.35561E+02   0.15512E-05   0.22432E-03   0.61120E+00   0.11846E+02  -0.88236E+00   0.12151E+00
   0.51764E-01   0.14815E-02   0.22120E+22   0.14710E-04   0.11945E+02   0.12261E+00  -0.87468E-01   0.39512E+01   0.00000E+00   0.00000E+00   0.39512E+01   0.10217E+00   0.35936E+02   0.15622E-05   0.22579E-03   0.68690E+00   0.11946E+02   0.58810E+00   0.12067E+00
   0.52909E-01   0.16884E-02   0.22144E+22   0.14726E-04   0.11635E+02   0.21762E+00   0.11717E+00   0.39565E+01   0.00000E+00   0.00000E+00   0.39565E+01   0.99465E-01   0.31241E+02   0.15550E-05   0.22489E-03   0.58575E+00   0.11638E+02   0.10715E+01   0.12096E+00
   0.54000E-01   0.15840E-02   0.22042E+22   0.14658E-04   0.11678E+02  -0.73731E-02   0.15604E+00   0.39483E+01   0.00000E+00   0.00000E+00   0.39483E+01   0.99920E-01   0.32434E+02   0.15680E-05   0.22654E-03   0.66212E+00   0.11679E+02  -0.36175E-01   0.12015E+00
   0.55145E-01   0.16884E-02   0.22093E+22   0.14692E-04   0.11785E+02  -0.20866E-01  -0.11353E+00   0.39496E+01   0.00000E+00   0.00000E+00   0.39496E+01   0.10082E+00   0.31179E+02   0.15664E-05   0.22634E-03   0.60798E+00   0.11786E+02  -0.10144E+00   0.12047E+00
   0.56127E-01   0.14850E-02   0.21928E+22   0.14582E-04   0.11943E+02  -0.10156E+00  -0.25763E+00   0.39467E+01   0.00000E+00   0.00000E+00   0.39467E+01   0.10222E+00   0.36764E+02   0.15792E-05   0.22811E-03   0.67301E+00   0.11946E+02  -0.48724E+00   0.11948E+00
   0.57273E-01   0.15105E-02   0.21940E+22   0.14590E-04   0.12082E+02  -0.13774E-01  -0.26849E+00   0.39393E+01   0.00000E+00   0.00000E+00   0.39393E+01   0.10351E+00   0.32853E+02   0.15835E-05   0.22852E-03   0.68175E+00   0.12085E+02  -0.65319E-01   0.11932E+00
   0.58309E-01   0.16217E-02   0.21864E+22   0.14539E-04   0.12068E+02  -0.32994E-01  -0.10155E+00   0.39383E+01   0.00000E+00   0.00000E+00   0.39383E+01   0.10338E+00   0.26580E+02   0.15731E-05   0.22699E-03   0.57224E+00   0.12068E+02  -0.15665E+00   0.11888E+00
   0.59345E-01   0.14950E-02   0.21776E+22   0.14481E-04   0.12041E+02   0.64715E-01  -0.22083E+00   0.39386E+01   0.00000E+00   0.00000E+00   0.39386E+01   0.10316E+00   0.25748E+02   0.15942E-05   0.23005E-03   0.70687E+00   0.12043E+02   0.30794E+00   0.11841E+00
   0.59727E-01   0.16543E-02   0.21847E+22   0.14528E-04   0.11695E+02   0.40261E-01  -0.62684E-01   0.39503E+01   0.00000E+00   0.00000E+00   0.39503E+01   0.10003E+00   0.17358E+02   0.15752E-05   0.22764E-03   0.54674E+00   0.11695E+02   0.19725E+00   0.11915E+00
   0.60491E-01   0.14074E-02   0.21650E+22   0.14397E-04   0.12064E+02   0.35339E+00   0.88510E-01   0.39388E+01   0.00000E+00   0.00000E+00   0.39388E+01   0.10338E+00   0.29951E+02   0.15954E-05   0.23022E-03   0.67146E+00   0.12069E+02   0.16779E+01   0.11773E+00