VARIABLES = "X","Y","ND","D","U","V","W","TTR","TRT","TVB","TOV","MA","MC","MCT","MFP","SOF","FSP","ANG","P"
 ZONE I=        3432  F=POINT
   0.15164E-01   0.66667E-03   0.36351E+23   0.24173E-03   0.24335E+02  -0.12123E+01   0.40395E+00   0.37322E+01   0.00000E+00   0.00000E+00   0.37322E+01   0.21444E+00   0.31566E+02   0.10155E-06   0.14265E-04   0.46295E+01   0.24369E+02  -0.28519E+01   0.18730E+01
   0.15873E-01   0.58519E-03   0.36144E+23   0.24036E-03   0.30918E+02  -0.21247E+01   0.53806E-02   0.37162E+01   0.00000E+00   0.00000E+00   0.37162E+01   0.27330E+00   0.15487E+02   0.99417E-07   0.13935E-04   0.50887E+01   0.30991E+02  -0.39311E+01   0.18544E+01
   0.16145E-01   0.90741E-03   0.34593E+23   0.23004E-03   0.34227E+02  -0.31834E+01   0.89182E-01   0.37165E+01   0.00000E+00   0.00000E+00   0.37165E+01   0.30313E+00   0.39106E+02   0.10398E-06   0.14575E-04   0.38136E+01   0.34375E+02  -0.53137E+01   0.17750E+01
   0.15491E-01   0.37037E-03   0.36652E+23   0.24374E-03   0.27075E+02  -0.23549E+01   0.64562E-01   0.37308E+01   0.00000E+00   0.00000E+00   0.37308E+01   0.23919E+00   0.13700E+02   0.10362E-06   0.14553E-04   0.59448E+01   0.27177E+02  -0.49710E+01   0.18879E+01
   0.15491E-01   0.79894E-03   0.34891E+23   0.23202E-03   0.29121E+02  -0.37183E+01   0.89692E-01   0.37226E+01   0.00000E+00   0.00000E+00   0.37226E+01   0.25867E+00   0.46123E+02   0.10387E-06   0.14571E-04   0.36551E+01   0.29357E+02  -0.72764E+01   0.17932E+01
   0.16200E-01   0.51852E-03   0.36036E+23   0.23964E-03   0.33704E+02  -0.21361E+01  -0.32830E+00   0.36934E+01   0.00000E+00   0.00000E+00   0.36934E+01   0.29875E+00   0.13306E+02   0.99858E-07   0.13954E-04   0.53134E+01   0.33773E+02  -0.36264E+01   0.18376E+01
   0.15709E-01   0.22222E-03   0.37928E+23   0.25222E-03   0.29683E+02  -0.84337E+00  -0.24917E+00   0.37203E+01   0.00000E+00   0.00000E+00   0.37203E+01   0.26173E+00   0.62240E+01   0.94878E-07   0.13306E-04   0.79765E+01   0.29696E+02  -0.16275E+01   0.19481E+01
   0.16255E-01   0.22222E-03   0.37694E+23   0.25066E-03   0.33405E+02  -0.88188E+00  -0.14563E+00   0.36881E+01   0.00000E+00   0.00000E+00   0.36881E+01   0.29581E+00   0.53264E+01   0.10044E-06   0.14025E-04   0.74397E+01   0.33417E+02  -0.15122E+01   0.19193E+01
   0.16909E-01   0.69136E-03   0.34671E+23   0.23056E-03   0.37327E+02  -0.14431E+01  -0.12998E-03   0.36912E+01   0.00000E+00   0.00000E+00   0.36912E+01   0.33054E+00   0.21809E+02   0.10376E-06   0.14495E-04   0.45824E+01   0.37355E+02  -0.22140E+01   0.17668E+01
   0.16855E-01   0.29630E-03   0.36252E+23   0.24108E-03   0.37521E+02  -0.61315E+00  -0.19275E+00   0.36758E+01   0.00000E+00   0.00000E+00   0.36758E+01   0.33274E+00   0.79319E+01   0.10223E-06   0.14251E-04   0.65050E+01   0.37526E+02  -0.93622E+00   0.18397E+01
   0.17291E-01   0.37037E-03   0.35419E+23   0.23554E-03   0.40069E+02  -0.81497E+00   0.39389E-01   0.36628E+01   0.00000E+00   0.00000E+00   0.36628E+01   0.35600E+00   0.14854E+02   0.10495E-06   0.14604E-04   0.55798E+01   0.40077E+02  -0.11652E+01   0.17911E+01
   0.17236E-01   0.79894E-03   0.33909E+23   0.22549E-03   0.38448E+02  -0.12869E+01  -0.87073E-01   0.36952E+01   0.00000E+00   0.00000E+00   0.36952E+01   0.34021E+00   0.24421E+02   0.10753E-06   0.15030E-04   0.38983E+01   0.38470E+02  -0.19170E+01   0.17299E+01
   0.16527E-01   0.75784E-03   0.34324E+23   0.22825E-03   0.36554E+02  -0.15055E+01   0.18536E-01   0.36994E+01   0.00000E+00   0.00000E+00   0.36994E+01   0.32336E+00   0.27849E+02   0.10608E-06   0.14835E-04   0.39596E+01   0.36585E+02  -0.23584E+01   0.17530E+01
   0.17018E-01   0.95425E-03   0.33230E+23   0.22098E-03   0.37567E+02  -0.13028E+01   0.18544E+00   0.37215E+01   0.00000E+00   0.00000E+00   0.37215E+01   0.33126E+00   0.31507E+02   0.10911E-06   0.15305E-04   0.33974E+01   0.37590E+02  -0.19862E+01   0.17073E+01
   0.16527E-01   0.29630E-03   0.36543E+23   0.24301E-03   0.35797E+02  -0.87066E+00  -0.32397E+00   0.36772E+01   0.00000E+00   0.00000E+00   0.36772E+01   0.31746E+00   0.73292E+01   0.99278E-07   0.13842E-04   0.60910E+01   0.35809E+02  -0.13933E+01   0.18552E+01
   0.18109E-01   0.51852E-03   0.33882E+23   0.22532E-03   0.41985E+02  -0.36137E+00   0.38207E-01   0.36516E+01   0.00000E+00   0.00000E+00   0.36516E+01   0.37353E+00   0.19769E+02   0.10709E-06   0.14880E-04   0.47929E+01   0.41987E+02  -0.49314E+00   0.17081E+01
   0.18273E-01   0.86420E-03   0.32155E+23   0.21383E-03   0.40187E+02  -0.56098E+00   0.58480E-01   0.37158E+01   0.00000E+00   0.00000E+00   0.37158E+01   0.35445E+00   0.35764E+02   0.11124E-06   0.15591E-04   0.36737E+01   0.40191E+02  -0.79975E+00   0.16496E+01
   0.17673E-01   0.90741E-03   0.32825E+23   0.21829E-03   0.39063E+02  -0.47703E+00   0.84726E-01   0.36880E+01   0.00000E+00   0.00000E+00   0.36880E+01   0.34583E+00   0.29776E+02   0.11020E-06   0.15388E-04   0.36177E+01   0.39066E+02  -0.69964E+00   0.16713E+01
   0.17727E-01   0.44444E-03   0.35227E+23   0.23426E-03   0.40728E+02  -0.41842E+00  -0.90946E-01   0.36422E+01   0.00000E+00   0.00000E+00   0.36422E+01   0.36281E+00   0.21839E+02   0.10406E-06   0.14440E-04   0.62309E+01   0.40730E+02  -0.58862E+00   0.17714E+01
   0.18164E-01   0.29630E-03   0.35558E+23   0.23646E-03   0.43040E+02  -0.43505E+00  -0.14756E-01   0.36316E+01   0.00000E+00   0.00000E+00   0.36316E+01   0.38397E+00   0.92389E+01   0.11332E-06   0.15702E-04   0.58642E+01   0.43043E+02  -0.57913E+00   0.17828E+01
   0.17945E-01   0.90741E-03   0.32463E+23   0.21588E-03   0.38575E+02  -0.38931E+00   0.54412E+00   0.36973E+01   0.00000E+00   0.00000E+00   0.36973E+01   0.34110E+00   0.94704E+01   0.11387E-06   0.15921E-04   0.32181E+01   0.38580E+02  -0.57823E+00   0.16571E+01
   0.19036E-01   0.69136E-03   0.32402E+23   0.21547E-03   0.43687E+02  -0.57034E+00   0.30662E+00   0.36745E+01   0.00000E+00   0.00000E+00   0.36745E+01   0.38749E+00   0.16838E+02   0.11111E-06   0.15486E-04   0.43641E+01   0.43692E+02  -0.74795E+00   0.16437E+01
   0.19364E-01   0.37037E-03   0.33245E+23   0.22108E-03   0.46422E+02  -0.27179E+00  -0.37892E+00   0.36458E+01   0.00000E+00   0.00000E+00   0.36458E+01   0.41334E+00   0.16064E+02   0.10845E-06   0.15057E-04   0.68686E+01   0.46425E+02  -0.33545E+00   0.16734E+01
   0.19364E-01   0.79894E-03   0.31166E+23   0.20726E-03   0.42677E+02  -0.38449E+00  -0.51310E-01   0.37167E+01   0.00000E+00   0.00000E+00   0.37167E+01   0.37635E+00   0.36369E+02   0.11586E-06   0.16241E-04   0.35688E+01   0.42679E+02  -0.51617E+00   0.15992E+01
   0.18873E-01   0.29630E-03   0.34589E+23   0.23002E-03   0.44898E+02  -0.33912E+00  -0.46890E-01   0.36418E+01   0.00000E+00   0.00000E+00   0.36418E+01   0.39998E+00   0.12929E+02   0.11052E-06   0.15335E-04   0.58304E+01   0.44899E+02  -0.43275E+00   0.17391E+01
   0.18764E-01   0.95425E-03   0.31371E+23   0.20862E-03   0.40213E+02  -0.36223E+00   0.91265E-01   0.37246E+01   0.00000E+00   0.00000E+00   0.37246E+01   0.35424E+00   0.36751E+02   0.11560E-06   0.16222E-04   0.32285E+01   0.40215E+02  -0.51609E+00   0.16131E+01
   0.18655E-01   0.58519E-03   0.32844E+23   0.21842E-03   0.43280E+02  -0.71698E+00   0.98644E-01   0.36775E+01   0.00000E+00   0.00000E+00   0.36775E+01   0.38373E+00   0.21858E+02   0.11169E-06   0.15573E-04   0.41780E+01   0.43286E+02  -0.94908E+00   0.16676E+01
   0.20345E-01   0.44444E-03   0.31900E+23   0.21213E-03   0.46820E+02  -0.20786E+00   0.77439E-01   0.36572E+01   0.00000E+00   0.00000E+00   0.36572E+01   0.41622E+00   0.18467E+02   0.11537E-06   0.16042E-04   0.48600E+01   0.46821E+02  -0.25436E+00   0.16107E+01
   0.19909E-01   0.86420E-03   0.30644E+23   0.20378E-03   0.42125E+02   0.71662E-01   0.12375E+00   0.37365E+01   0.00000E+00   0.00000E+00   0.37365E+01   0.37048E+00   0.37854E+02   0.11714E-06   0.16464E-04   0.35983E+01   0.42125E+02   0.97471E-01   0.15808E+01
   0.19909E-01   0.37037E-03   0.33364E+23   0.22187E-03   0.47147E+02   0.17813E+00  -0.25912E+00   0.36369E+01   0.00000E+00   0.00000E+00   0.36369E+01   0.42029E+00   0.12775E+02   0.11104E-06   0.15397E-04   0.59591E+01   0.47148E+02   0.21647E+00   0.16752E+01
   0.20509E-01   0.86420E-03   0.30207E+23   0.20088E-03   0.43830E+02   0.14531E+00   0.15422E+00   0.37024E+01   0.00000E+00   0.00000E+00   0.37024E+01   0.38725E+00   0.30155E+02   0.12068E-06   0.16884E-04   0.34346E+01   0.43830E+02   0.18996E+00   0.15440E+01
   0.20236E-01   0.84444E-03   0.31364E+23   0.20857E-03   0.43564E+02   0.29194E+00  -0.11678E+00   0.36871E+01   0.00000E+00   0.00000E+00   0.36871E+01   0.38570E+00   0.12295E+02   0.11882E-06   0.16589E-04   0.35120E+01   0.43565E+02   0.38395E+00   0.15965E+01
   0.19964E-01   0.62626E-03   0.31316E+23   0.20825E-03   0.46510E+02   0.73473E+00  -0.14141E+00   0.36798E+01   0.00000E+00   0.00000E+00   0.36798E+01   0.41224E+00   0.11991E+02   0.11528E-06   0.16079E-04   0.42645E+01   0.46516E+02   0.90503E+00   0.15909E+01
   0.21382E-01   0.75784E-03   0.29895E+23   0.19880E-03   0.47141E+02  -0.29851E+00  -0.25101E+00   0.36911E+01   0.00000E+00   0.00000E+00   0.36911E+01   0.41715E+00   0.19078E+02   0.12128E-06   0.16942E-04   0.38840E+01   0.47143E+02  -0.36281E+00   0.15235E+01
   0.20891E-01   0.51852E-03   0.30817E+23   0.20494E-03   0.47813E+02  -0.19733E+00  -0.16870E+00   0.36595E+01   0.00000E+00   0.00000E+00   0.36595E+01   0.42491E+00   0.16436E+02   0.11777E-06   0.16381E-04   0.48867E+01   0.47814E+02  -0.23647E+00   0.15570E+01
   0.21436E-01   0.29630E-03   0.31743E+23   0.21109E-03   0.50031E+02  -0.73327E-01  -0.21069E+00   0.36378E+01   0.00000E+00   0.00000E+00   0.36378E+01   0.44595E+00   0.11865E+02   0.11630E-06   0.16129E-04   0.64049E+01   0.50032E+02  -0.83974E-01   0.15942E+01
   0.21000E-01   0.90741E-03   0.29468E+23   0.19596E-03   0.44083E+02  -0.13683E+00   0.10744E-01   0.37264E+01   0.00000E+00   0.00000E+00   0.37264E+01   0.38822E+00   0.31029E+02   0.12275E-06   0.17230E-04   0.33851E+01   0.44083E+02  -0.17785E+00   0.15160E+01
   0.21655E-01   0.79202E-03   0.28957E+23   0.19256E-03   0.46263E+02  -0.58109E+00   0.64327E-01   0.37046E+01   0.00000E+00   0.00000E+00   0.37046E+01   0.40865E+00   0.36430E+02   0.12532E-06   0.17538E-04   0.35498E+01   0.46267E+02  -0.71963E+00   0.14810E+01
   0.20782E-01   0.29630E-03   0.32988E+23   0.21937E-03   0.48456E+02  -0.10953E+00  -0.43093E+00   0.36173E+01   0.00000E+00   0.00000E+00   0.36173E+01   0.43314E+00   0.85712E+01   0.11230E-06   0.15530E-04   0.74293E+01   0.48458E+02  -0.12952E+00   0.16474E+01
   0.22473E-01   0.44444E-03   0.30187E+23   0.20074E-03   0.51366E+02  -0.29206E+00  -0.91828E-01   0.36228E+01   0.00000E+00   0.00000E+00   0.36228E+01   0.45879E+00   0.17062E+02   0.12033E-06   0.16653E-04   0.53607E+01   0.51367E+02  -0.32578E+00   0.15098E+01
   0.21982E-01   0.44444E-03   0.30507E+23   0.20287E-03   0.50341E+02  -0.23363E+00   0.87556E-01   0.36418E+01   0.00000E+00   0.00000E+00   0.36418E+01   0.44846E+00   0.21693E+02   0.12054E-06   0.16726E-04   0.55947E+01   0.50342E+02  -0.26590E+00   0.15338E+01
   0.22036E-01   0.90741E-03   0.28473E+23   0.18934E-03   0.45273E+02  -0.32592E-01   0.13782E+00   0.37151E+01   0.00000E+00   0.00000E+00   0.37151E+01   0.39931E+00   0.31538E+02   0.12681E-06   0.17771E-04   0.33176E+01   0.45273E+02  -0.41247E-01   0.14604E+01
   0.22364E-01   0.90741E-03   0.28341E+23   0.18847E-03   0.46442E+02  -0.52285E+00   0.22225E+00   0.37085E+01   0.00000E+00   0.00000E+00   0.37085E+01   0.41001E+00   0.14082E+02   0.12362E-06   0.17309E-04   0.35052E+01   0.46445E+02  -0.64502E+00   0.14511E+01
   0.22691E-01   0.90741E-03   0.27734E+23   0.18443E-03   0.46525E+02   0.22755E+00   0.97403E-01   0.37209E+01   0.00000E+00   0.00000E+00   0.37209E+01   0.41004E+00   0.29077E+02   0.12944E-06   0.18155E-04   0.32870E+01   0.46526E+02   0.28023E+00   0.14247E+01
   0.22800E-01   0.60082E-03   0.28910E+23   0.19225E-03   0.50741E+02   0.26107E+00  -0.13127E+00   0.36320E+01   0.00000E+00   0.00000E+00   0.36320E+01   0.45263E+00   0.20558E+02   0.12470E-06   0.17279E-04   0.48256E+01   0.50742E+02   0.29480E+00   0.14497E+01
   0.23564E-01   0.44444E-03   0.28620E+23   0.19032E-03   0.52833E+02   0.12478E+00  -0.94058E-01   0.36265E+01   0.00000E+00   0.00000E+00   0.36265E+01   0.47165E+00   0.19960E+02   0.12844E-06   0.17785E-04   0.46178E+01   0.52834E+02   0.13532E+00   0.14329E+01
   0.23182E-01   0.86420E-03   0.27583E+23   0.18342E-03   0.48876E+02   0.24491E-01  -0.10443E+00   0.36899E+01   0.00000E+00   0.00000E+00   0.36899E+01   0.43255E+00   0.31558E+02   0.12974E-06   0.18121E-04   0.39800E+01   0.48876E+02   0.28710E-01   0.14051E+01
   0.23836E-01   0.86420E-03   0.27115E+23   0.18031E-03   0.49698E+02   0.48345E+00  -0.13046E-01   0.36886E+01   0.00000E+00   0.00000E+00   0.36886E+01   0.43992E+00   0.38192E+02   0.13432E-06   0.18758E-04   0.35011E+01   0.49700E+02   0.55735E+00   0.13808E+01
   0.23127E-01   0.37037E-03   0.29528E+23   0.19636E-03   0.53713E+02   0.29010E+00  -0.15535E+00   0.36061E+01   0.00000E+00   0.00000E+00   0.36061E+01   0.48087E+00   0.13729E+02   0.12359E-06   0.17064E-04   0.63976E+01   0.53714E+02   0.30945E+00   0.14701E+01
   0.23509E-01   0.90741E-03   0.26819E+23   0.17835E-03   0.47984E+02   0.51473E+00  -0.50722E-01   0.37202E+01   0.00000E+00   0.00000E+00   0.37202E+01   0.42295E+00   0.16626E+02   0.13386E-06   0.18772E-04   0.31410E+01   0.47987E+02   0.61459E+00   0.13775E+01
   0.24436E-01   0.58519E-03   0.27510E+23   0.18294E-03   0.52253E+02  -0.56701E+00   0.81143E-01   0.36541E+01   0.00000E+00   0.00000E+00   0.36541E+01   0.46473E+00   0.13042E+02   0.13019E-06   0.18095E-04   0.43028E+01   0.52257E+02  -0.62170E+00   0.13879E+01
   0.24873E-01   0.44444E-03   0.27589E+23   0.18347E-03   0.54673E+02  -0.20426E+00  -0.83792E-01   0.36192E+01   0.00000E+00   0.00000E+00   0.36192E+01   0.48857E+00   0.20499E+02   0.13699E-06   0.18949E-04   0.46431E+01   0.54673E+02  -0.21406E+00   0.13785E+01
   0.24218E-01   0.37037E-03   0.28777E+23   0.19137E-03   0.53839E+02  -0.19726E-01  -0.39151E-01   0.36176E+01   0.00000E+00   0.00000E+00   0.36176E+01   0.48121E+00   0.17446E+02   0.13049E-06   0.18046E-04   0.60020E+01   0.53839E+02  -0.20993E-01   0.14373E+01
   0.24873E-01   0.90741E-03   0.25811E+23   0.17164E-03   0.49781E+02   0.72617E-01  -0.22651E+00   0.36948E+01   0.00000E+00   0.00000E+00   0.36948E+01   0.44027E+00   0.41415E+02   0.14117E-06   0.19731E-04   0.30789E+01   0.49781E+02   0.83580E-01   0.13167E+01
   0.24327E-01   0.86420E-03   0.26272E+23   0.17471E-03   0.50482E+02  -0.78854E-01  -0.41890E-02   0.37111E+01   0.00000E+00   0.00000E+00   0.37111E+01   0.44549E+00   0.25868E+02   0.13721E-06   0.19219E-04   0.32568E+01   0.50482E+02  -0.89497E-01   0.13461E+01
   0.25473E-01   0.72222E-03   0.25672E+23   0.17072E-03   0.54190E+02  -0.16675E+00  -0.18978E+00   0.36698E+01   0.00000E+00   0.00000E+00   0.36698E+01   0.48090E+00   0.27032E+02   0.13949E-06   0.19429E-04   0.38091E+01   0.54191E+02  -0.17631E+00   0.13007E+01
   0.25909E-01   0.37037E-03   0.26685E+23   0.17745E-03   0.58180E+02  -0.38182E+00   0.29083E-01   0.35825E+01   0.00000E+00   0.00000E+00   0.35825E+01   0.52257E+00   0.12407E+02   0.13664E-06   0.18804E-04   0.56336E+01   0.58181E+02  -0.37602E+00   0.13198E+01
   0.25255E-01   0.37037E-03   0.27443E+23   0.18250E-03   0.56920E+02  -0.15943E+00   0.39255E+00   0.36046E+01   0.00000E+00   0.00000E+00   0.36046E+01   0.50968E+00   0.11384E+02   0.13582E-06   0.18750E-04   0.51399E+01   0.56921E+02  -0.16048E+00   0.13657E+01
   0.25964E-01   0.79894E-03   0.24865E+23   0.16535E-03   0.53746E+02   0.34514E-01  -0.10449E+00   0.36559E+01   0.00000E+00   0.00000E+00   0.36559E+01   0.47787E+00   0.31736E+02   0.14793E-06   0.20565E-04   0.30997E+01   0.53746E+02   0.36793E-01   0.12550E+01
   0.25636E-01   0.22222E-03   0.27859E+23   0.18526E-03   0.58391E+02  -0.11300E+00   0.49385E+00   0.36037E+01   0.00000E+00   0.00000E+00   0.36037E+01   0.52293E+00   0.33017E+01   0.13926E-06   0.19222E-04   0.61707E+01   0.58393E+02  -0.11088E+00   0.13860E+01
   0.26891E-01   0.45503E-03   0.25162E+23   0.16733E-03   0.59796E+02  -0.11747E+00   0.33018E+00   0.35808E+01   0.00000E+00   0.00000E+00   0.35808E+01   0.53721E+00   0.18352E+02   0.14704E-06   0.20231E-04   0.42179E+01   0.59797E+02  -0.11256E+00   0.12439E+01
   0.26455E-01   0.86420E-03   0.24237E+23   0.16118E-03   0.54137E+02   0.11436E+00  -0.15959E+00   0.36852E+01   0.00000E+00   0.00000E+00   0.36852E+01   0.47942E+00   0.31266E+02   0.14911E-06   0.20813E-04   0.32410E+01   0.54137E+02   0.12103E+00   0.12331E+01
   0.27000E-01   0.86420E-03   0.23665E+23   0.15737E-03   0.55412E+02   0.26636E+00   0.70539E-01   0.36522E+01   0.00000E+00   0.00000E+00   0.36522E+01   0.49293E+00   0.28695E+02   0.15385E-06   0.21379E-04   0.32113E+01   0.55413E+02   0.27542E+00   0.11933E+01
   0.26345E-01   0.37037E-03   0.26294E+23   0.17485E-03   0.59471E+02   0.15846E+00   0.14116E+00   0.35782E+01   0.00000E+00   0.00000E+00   0.35782E+01   0.53448E+00   0.11027E+02   0.14043E-06   0.19315E-04   0.56722E+01   0.59472E+02   0.15266E+00   0.12990E+01
   0.26945E-01   0.29630E-03   0.26718E+23   0.17768E-03   0.60280E+02   0.20918E+00   0.27451E+00   0.35600E+01   0.00000E+00   0.00000E+00   0.35600E+01   0.54313E+00   0.52370E+01   0.14524E-06   0.19926E-04   0.57782E+01   0.60281E+02   0.19883E+00   0.13132E+01
   0.27655E-01   0.44444E-03   0.24511E+23   0.16300E-03   0.61478E+02   0.13578E+00   0.10066E+00   0.35739E+01   0.00000E+00   0.00000E+00   0.35739E+01   0.55284E+00   0.24357E+02   0.15076E-06   0.20723E-04   0.44095E+01   0.61478E+02   0.12655E+00   0.12094E+01
   0.28200E-01   0.44444E-03   0.24038E+23   0.15986E-03   0.63325E+02   0.29488E+00  -0.17358E+00   0.35450E+01   0.00000E+00   0.00000E+00   0.35450E+01   0.57178E+00   0.18409E+02   0.15332E-06   0.20989E-04   0.46701E+01   0.63326E+02   0.26681E+00   0.11765E+01
   0.27600E-01   0.90741E-03   0.23209E+23   0.15434E-03   0.56087E+02   0.31144E-01  -0.34223E-01   0.36410E+01   0.00000E+00   0.00000E+00   0.36410E+01   0.49969E+00   0.30997E+02   0.15893E-06   0.22051E-04   0.29842E+01   0.56087E+02   0.31815E-01   0.11667E+01
   0.28145E-01   0.90741E-03   0.22283E+23   0.14818E-03   0.57416E+02   0.18767E+00  -0.13155E+00   0.36390E+01   0.00000E+00   0.00000E+00   0.36390E+01   0.51168E+00   0.26002E+02   0.16446E-06   0.22811E-04   0.28027E+01   0.57416E+02   0.18728E+00   0.11195E+01
   0.28745E-01   0.44444E-03   0.23139E+23   0.15387E-03   0.64674E+02  -0.49817E+00  -0.18234E+00   0.35297E+01   0.00000E+00   0.00000E+00   0.35297E+01   0.58523E+00   0.16771E+02   0.16186E-06   0.22111E-04   0.41802E+01   0.64676E+02  -0.44133E+00   0.11276E+01
   0.29236E-01   0.79894E-03   0.21359E+23   0.14204E-03   0.62839E+02   0.30555E+00  -0.98095E-01   0.35859E+01   0.00000E+00   0.00000E+00   0.35859E+01   0.56414E+00   0.25411E+02   0.17338E-06   0.23872E-04   0.29565E+01   0.62839E+02   0.27859E+00   0.10574E+01
   0.28691E-01   0.86420E-03   0.21965E+23   0.14607E-03   0.59443E+02   0.94029E-01  -0.17331E+00   0.36307E+01   0.00000E+00   0.00000E+00   0.36307E+01   0.53034E+00   0.33642E+02   0.16693E-06   0.23128E-04   0.29457E+01   0.59443E+02   0.90633E-01   0.11010E+01
   0.29291E-01   0.37037E-03   0.22916E+23   0.15239E-03   0.67237E+02   0.26415E+00   0.92700E-01   0.35124E+01   0.00000E+00   0.00000E+00   0.35124E+01   0.60991E+00   0.14102E+02   0.16411E-06   0.22363E-04   0.45601E+01   0.67238E+02   0.22509E+00   0.11112E+01
   0.29836E-01   0.44444E-03   0.21646E+23   0.14395E-03   0.68575E+02   0.30353E+00  -0.26965E+00   0.35138E+01   0.00000E+00   0.00000E+00   0.35138E+01   0.62192E+00   0.15590E+02   0.17144E-06   0.23367E-04   0.41153E+01   0.68576E+02   0.25360E+00   0.10501E+01
   0.29836E-01   0.86420E-03   0.20563E+23   0.13674E-03   0.63083E+02  -0.86134E-02  -0.24946E+00   0.35908E+01   0.00000E+00   0.00000E+00   0.35908E+01   0.56594E+00   0.30275E+02   0.17637E-06   0.24300E-04   0.30256E+01   0.63083E+02  -0.78232E-02   0.10194E+01
   0.30327E-01   0.75784E-03   0.20185E+23   0.13423E-03   0.67677E+02  -0.10749E+00   0.21135E-02   0.35284E+01   0.00000E+00   0.00000E+00   0.35284E+01   0.61250E+00   0.20794E+02   0.18499E-06   0.25265E-04   0.29053E+01   0.67677E+02  -0.91001E-01   0.98325E+00
   0.30218E-01   0.29630E-03   0.21800E+23   0.14497E-03   0.71398E+02  -0.27119E+00  -0.64157E-01   0.34695E+01   0.00000E+00   0.00000E+00   0.34695E+01   0.65164E+00   0.73536E+01   0.17411E-06   0.23580E-04   0.49300E+01   0.71398E+02  -0.21762E+00   0.10442E+01
   0.31309E-01   0.72222E-03   0.19236E+23   0.12792E-03   0.71139E+02  -0.46850E-02   0.16610E-01   0.34873E+01   0.00000E+00   0.00000E+00   0.34873E+01   0.64762E+00   0.24201E+02   0.19371E-06   0.26302E-04   0.31284E+01   0.71139E+02  -0.37733E-02   0.92613E+00
   0.30764E-01   0.82540E-03   0.19531E+23   0.12988E-03   0.67590E+02  -0.28829E-01   0.21990E+00   0.35329E+01   0.00000E+00   0.00000E+00   0.35329E+01   0.61133E+00   0.28400E+02   0.19204E-06   0.26245E-04   0.26276E+01   0.67591E+02  -0.24438E-01   0.95261E+00
   0.30873E-01   0.37037E-03   0.20966E+23   0.13943E-03   0.73853E+02   0.18824E+00  -0.50104E+00   0.34481E+01   0.00000E+00   0.00000E+00   0.34481E+01   0.67615E+00   0.93660E+01   0.17887E-06   0.24150E-04   0.45572E+01   0.73855E+02   0.14604E+00   0.99810E+00
   0.31418E-01   0.44444E-03   0.19999E+23   0.13299E-03   0.76012E+02  -0.48117E-01   0.22851E-01   0.34232E+01   0.00000E+00   0.00000E+00   0.34232E+01   0.69843E+00   0.92984E+01   0.18315E-06   0.24639E-04   0.48864E+01   0.76012E+02  -0.36269E-01   0.94514E+00
   0.32236E-01   0.72222E-03   0.17782E+23   0.11825E-03   0.75480E+02   0.15576E+00  -0.12842E+00   0.34370E+01   0.00000E+00   0.00000E+00   0.34370E+01   0.69215E+00   0.38420E+02   0.21349E-06   0.28778E-04   0.26384E+01   0.75481E+02   0.11823E+00   0.84376E+00
   0.32455E-01   0.44444E-03   0.18405E+23   0.12239E-03   0.82595E+02  -0.30796E-01  -0.45773E-01   0.33315E+01   0.00000E+00   0.00000E+00   0.33315E+01   0.76928E+00   0.93123E+01   0.20403E-06   0.27077E-04   0.47746E+01   0.82595E+02  -0.21363E-01   0.84653E+00
   0.31909E-01   0.51852E-03   0.19378E+23   0.12886E-03   0.77332E+02   0.74048E-01   0.38130E+00   0.34049E+01   0.00000E+00   0.00000E+00   0.34049E+01   0.71247E+00   0.12543E+02   0.19779E-06   0.26537E-04   0.39121E+01   0.77333E+02   0.54863E-01   0.91091E+00
   0.33109E-01   0.72222E-03   0.16580E+23   0.11026E-03   0.81831E+02  -0.39838E-01  -0.14081E+00   0.33573E+01   0.00000E+00   0.00000E+00   0.33573E+01   0.75923E+00   0.24336E+02   0.22849E-06   0.30440E-04   0.28592E+01   0.81831E+02  -0.27893E-01   0.76851E+00
   0.33600E-01   0.74748E-03   0.15708E+23   0.10446E-03   0.84725E+02   0.50894E+00   0.23494E+00   0.33068E+01   0.00000E+00   0.00000E+00   0.33068E+01   0.79208E+00   0.30001E+02   0.24201E-06   0.31999E-04   0.27282E+01   0.84727E+02   0.34417E+00   0.71714E+00
   0.33273E-01   0.37037E-03   0.17900E+23   0.11903E-03   0.85443E+02   0.26421E+00   0.16040E+00   0.32764E+01   0.00000E+00   0.00000E+00   0.32764E+01   0.80248E+00   0.11178E+02   0.21372E-06   0.28128E-04   0.49056E+01   0.85444E+02   0.17717E+00   0.80967E+00
   0.34364E-01   0.59259E-03   0.14688E+23   0.97674E-04   0.96213E+02   0.74921E+00   0.19790E+00   0.31192E+01   0.00000E+00   0.00000E+00   0.31192E+01   0.92615E+00   0.26513E+02   0.25892E-06   0.33250E-04   0.34269E+01   0.96216E+02   0.44615E+00   0.63251E+00
   0.34200E-01   0.82540E-03   0.14487E+23   0.96339E-04   0.87093E+02   0.96392E+00   0.11296E+00   0.32728E+01   0.00000E+00   0.00000E+00   0.32728E+01   0.81847E+00   0.28528E+02   0.26625E-06   0.35022E-04   0.23149E+01   0.87099E+02   0.63411E+00   0.65459E+00
   0.35236E-01   0.59259E-03   0.13432E+23   0.89324E-04   0.99569E+02   0.18336E+01   0.33224E+00   0.30658E+01   0.00000E+00   0.00000E+00   0.30658E+01   0.96690E+00   0.23512E+02   0.28670E-06   0.36500E-04   0.28927E+01   0.99586E+02   0.10550E+01   0.56854E+00
   0.35836E-01   0.59259E-03   0.12814E+23   0.85214E-04   0.10042E+03   0.22792E+01   0.29895E+00   0.30526E+01   0.00000E+00   0.00000E+00   0.30526E+01   0.97740E+00   0.17582E+02   0.30575E-06   0.38842E-04   0.31501E+01   0.10045E+03   0.13002E+01   0.54004E+00
   0.36600E-01   0.75784E-03   0.12238E+23   0.81380E-04   0.95875E+02   0.27454E+01   0.76836E-03   0.31439E+01   0.00000E+00   0.00000E+00   0.31439E+01   0.91961E+00   0.26553E+02   0.32257E-06   0.41587E-04   0.22377E+01   0.95914E+02   0.16402E+01   0.53116E+00
   0.36545E-01   0.29630E-03   0.13006E+23   0.86490E-04   0.10043E+03   0.12337E+01   0.18042E+00   0.30446E+01   0.00000E+00   0.00000E+00   0.30446E+01   0.97857E+00   0.87742E+01   0.30299E-06   0.38440E-04   0.36830E+01   0.10044E+03   0.70380E+00   0.54669E+00
   0.37527E-01   0.66667E-03   0.12144E+23   0.80759E-04   0.91393E+02   0.22985E+01   0.16895E+00   0.32349E+01   0.00000E+00   0.00000E+00   0.32349E+01   0.86411E+00   0.28343E+02   0.32307E-06   0.42250E-04   0.22876E+01   0.91422E+02   0.14407E+01   0.54237E+00
   0.37909E-01   0.59259E-03   0.12197E+23   0.81109E-04   0.92103E+02   0.16665E+01   0.22160E+00   0.32253E+01   0.00000E+00   0.00000E+00   0.32253E+01   0.87199E+00   0.12454E+02   0.30072E-06   0.39268E-04   0.33927E+01   0.92118E+02   0.10366E+01   0.54311E+00
   0.38727E-01   0.75784E-03   0.11630E+23   0.77338E-04   0.85100E+02   0.24692E+01  -0.10807E+00   0.33459E+01   0.00000E+00   0.00000E+00   0.33459E+01   0.79124E+00   0.27937E+02   0.32881E-06   0.43731E-04   0.21362E+01   0.85136E+02   0.16619E+01   0.53722E+00
   0.38836E-01   0.29630E-03   0.12309E+23   0.81856E-04   0.90837E+02   0.78129E+00   0.69469E-01   0.32774E+01   0.00000E+00   0.00000E+00   0.32774E+01   0.85303E+00   0.81358E+01   0.30096E-06   0.39616E-04   0.39428E+01   0.90840E+02   0.49279E+00   0.55696E+00
   0.39818E-01   0.66667E-03   0.11757E+23   0.78181E-04   0.83171E+02   0.16718E+01   0.22028E+00   0.33950E+01   0.00000E+00   0.00000E+00   0.33950E+01   0.76753E+00   0.20847E+02   0.32361E-06   0.43355E-04   0.26791E+01   0.83188E+02   0.11516E+01   0.55105E+00
   0.39545E-01   0.96296E-03   0.11350E+23   0.75480E-04   0.77673E+02   0.29626E+01  -0.59021E-01   0.34579E+01   0.00000E+00   0.00000E+00   0.34579E+01   0.71061E+00   0.32958E+02   0.33198E-06   0.44886E-04   0.18849E+01   0.77729E+02   0.21843E+01   0.54186E+00
   0.40909E-01   0.59259E-03   0.11477E+23   0.76325E-04   0.78163E+02   0.15735E+01   0.32474E-01   0.34686E+01   0.00000E+00   0.00000E+00   0.34686E+01   0.71361E+00   0.23072E+02   0.30930E-06   0.41885E-04   0.29379E+01   0.78178E+02   0.11533E+01   0.54963E+00
   0.40636E-01   0.93333E-03   0.11122E+23   0.73961E-04   0.75194E+02   0.25206E+01  -0.26236E-01   0.35175E+01   0.00000E+00   0.00000E+00   0.35175E+01   0.68197E+00   0.33460E+02   0.33350E-06   0.45479E-04   0.19228E+01   0.75237E+02   0.19199E+01   0.54011E+00
   0.41945E-01   0.66667E-03   0.11145E+23   0.74117E-04   0.73148E+02   0.13992E+01   0.70979E-01   0.35446E+01   0.00000E+00   0.00000E+00   0.35446E+01   0.66062E+00   0.29670E+02   0.33028E-06   0.45213E-04   0.23387E+01   0.73161E+02   0.10958E+01   0.54542E+00
   0.42327E-01   0.59259E-03   0.11391E+23   0.75753E-04   0.72548E+02   0.14528E+01  -0.13772E+00   0.35549E+01   0.00000E+00   0.00000E+00   0.35549E+01   0.65426E+00   0.12099E+02   0.30812E-06   0.42240E-04   0.30305E+01   0.72563E+02   0.11472E+01   0.55908E+00
   0.43145E-01   0.59259E-03   0.11213E+23   0.74568E-04   0.68625E+02   0.15253E+01   0.16901E+00   0.35908E+01   0.00000E+00   0.00000E+00   0.35908E+01   0.61581E+00   0.27448E+02   0.32620E-06   0.44943E-04   0.27151E+01   0.68642E+02   0.12733E+01   0.55589E+00
   0.44236E-01   0.66667E-03   0.11088E+23   0.73738E-04   0.63847E+02   0.12063E+01   0.99404E-01   0.36607E+01   0.00000E+00   0.00000E+00   0.36607E+01   0.56739E+00   0.25980E+02   0.31778E-06   0.44209E-04   0.27482E+01   0.63858E+02   0.10824E+01   0.56041E+00
   0.43800E-01   0.86243E-03   0.10886E+23   0.72389E-04   0.63869E+02   0.17124E+01   0.18638E+00   0.36553E+01   0.00000E+00   0.00000E+00   0.36553E+01   0.56812E+00   0.26398E+02   0.33506E-06   0.46579E-04   0.19667E+01   0.63892E+02   0.15358E+01   0.54934E+00
   0.45218E-01   0.59259E-03   0.11118E+23   0.73934E-04   0.61562E+02   0.12927E+01  -0.10293E+00   0.36796E+01   0.00000E+00   0.00000E+00   0.36796E+01   0.54571E+00   0.20373E+02   0.32824E-06   0.45781E-04   0.26526E+01   0.61576E+02   0.12030E+01   0.56480E+00
   0.45545E-01   0.86243E-03   0.10790E+23   0.71752E-04   0.57221E+02   0.19547E+01   0.79159E-01   0.37325E+01   0.00000E+00   0.00000E+00   0.37325E+01   0.50381E+00   0.32412E+02   0.33320E-06   0.46806E-04   0.19856E+01   0.57255E+02   0.19565E+01   0.55600E+00
   0.46364E-01   0.74074E-03   0.10836E+23   0.72059E-04   0.55545E+02   0.13389E+01   0.45401E-01   0.37510E+01   0.00000E+00   0.00000E+00   0.37510E+01   0.48770E+00   0.35267E+02   0.32968E-06   0.46426E-04   0.23829E+01   0.55561E+02   0.13808E+01   0.56116E+00
   0.46527E-01   0.44444E-03   0.11304E+23   0.75170E-04   0.56656E+02   0.48457E+00  -0.23006E+00   0.37398E+01   0.00000E+00   0.00000E+00   0.37398E+01   0.49807E+00   0.79865E+01   0.30072E-06   0.42285E-04   0.39614E+01   0.56659E+02   0.49003E+00   0.58363E+00
   0.47400E-01   0.66667E-03   0.10931E+23   0.72694E-04   0.52661E+02   0.12947E+01  -0.17960E+00   0.37768E+01   0.00000E+00   0.00000E+00   0.37768E+01   0.46080E+00   0.27854E+02   0.32415E-06   0.45804E-04   0.29045E+01   0.52677E+02   0.14083E+01   0.57000E+00