VARIABLES = "X","Y","ND","D","U","V","W","TTR","TRT","TVB","TOV","MA","MC","MCT","MFP","SOF","FSP","ANG","P"
 ZONE I=        3545  F=POINT
   0.15164E-01   0.59259E-03   0.40670E+23   0.27046E-03   0.25839E+02  -0.14175E+01   0.10598E+00   0.38420E+01   0.00000E+00   0.00000E+00   0.38420E+01   0.22444E+00   0.27623E+02   0.89379E-07   0.12738E-04   0.52060E+01   0.25878E+02  -0.31401E+01   0.21572E+01
   0.15709E-01   0.62626E-03   0.40090E+23   0.26660E-03   0.30538E+02  -0.27888E+01  -0.37757E+00   0.38038E+01   0.00000E+00   0.00000E+00   0.38038E+01   0.26731E+00   0.21746E+02   0.88928E-07   0.12611E-04   0.48743E+01   0.30667E+02  -0.52179E+01   0.21053E+01
   0.16091E-01   0.41270E-03   0.40959E+23   0.27238E-03   0.33435E+02  -0.14027E+01  -0.22801E+00   0.37814E+01   0.00000E+00   0.00000E+00   0.37814E+01   0.29256E+00   0.14189E+02   0.88100E-07   0.12457E-04   0.57094E+01   0.33465E+02  -0.24023E+01   0.21383E+01
   0.16145E-01   0.79894E-03   0.39827E+23   0.26485E-03   0.34606E+02  -0.31650E+01   0.53215E-01   0.37823E+01   0.00000E+00   0.00000E+00   0.37823E+01   0.30377E+00   0.25961E+02   0.89832E-07   0.12703E-04   0.45460E+01   0.34751E+02  -0.52256E+01   0.20797E+01
   0.15545E-01   0.37037E-03   0.42178E+23   0.28048E-03   0.28280E+02  -0.19843E+01  -0.32178E+00   0.38051E+01   0.00000E+00   0.00000E+00   0.38051E+01   0.24709E+00   0.14035E+02   0.87117E-07   0.12356E-04   0.71993E+01   0.28352E+02  -0.40136E+01   0.22157E+01
   0.15382E-01   0.86420E-03   0.39511E+23   0.26275E-03   0.29455E+02  -0.28926E+01  -0.50447E-01   0.38147E+01   0.00000E+00   0.00000E+00   0.38147E+01   0.25761E+00   0.46647E+02   0.91214E-07   0.12954E-04   0.36356E+01   0.29597E+02  -0.56087E+01   0.20809E+01
   0.16255E-01   0.22222E-03   0.42352E+23   0.28164E-03   0.34521E+02  -0.77187E+00  -0.68408E-01   0.37962E+01   0.00000E+00   0.00000E+00   0.37962E+01   0.30128E+00   0.50194E+01   0.85341E-07   0.12090E-04   0.84372E+01   0.34530E+02  -0.12809E+01   0.22197E+01
   0.15873E-01   0.95425E-03   0.38624E+23   0.25685E-03   0.34244E+02  -0.40655E+01  -0.98153E-01   0.38150E+01   0.00000E+00   0.00000E+00   0.38150E+01   0.30015E+00   0.39614E+02   0.92000E-07   0.13065E-04   0.36600E+01   0.34485E+02  -0.67705E+01   0.20343E+01
   0.15873E-01   0.22222E-03   0.42995E+23   0.28592E-03   0.32007E+02  -0.91173E+00  -0.96217E+00   0.37907E+01   0.00000E+00   0.00000E+00   0.37907E+01   0.27971E+00   0.43117E+01   0.10000E+11   0.32794E-04   0.00000E+00   0.32034E+02  -0.16317E+01   0.22501E+01
   0.17018E-01   0.58519E-03   0.39362E+23   0.26176E-03   0.39917E+02  -0.10245E+01   0.12046E+00   0.37492E+01   0.00000E+00   0.00000E+00   0.37492E+01   0.35057E+00   0.17225E+02   0.90811E-07   0.12785E-04   0.52697E+01   0.39930E+02  -0.14702E+01   0.20375E+01
   0.16800E-01   0.90741E-03   0.38362E+23   0.25511E-03   0.37521E+02  -0.17102E+01  -0.12228E+00   0.37784E+01   0.00000E+00   0.00000E+00   0.37784E+01   0.32849E+00   0.35847E+02   0.93391E-07   0.13199E-04   0.40878E+01   0.37560E+02  -0.26098E+01   0.20011E+01
   0.16582E-01   0.56296E-03   0.39782E+23   0.26455E-03   0.38120E+02  -0.20394E+01   0.26505E+00   0.37541E+01   0.00000E+00   0.00000E+00   0.37541E+01   0.33495E+00   0.14507E+02   0.90343E-07   0.12727E-04   0.52570E+01   0.38175E+02  -0.30624E+01   0.20619E+01
   0.17236E-01   0.86420E-03   0.37655E+23   0.25041E-03   0.39306E+02  -0.99920E+00  -0.11966E-01   0.37724E+01   0.00000E+00   0.00000E+00   0.37724E+01   0.34414E+00   0.44456E+02   0.95856E-07   0.13537E-04   0.37978E+01   0.39318E+02  -0.14562E+01   0.19612E+01
   0.16909E-01   0.22222E-03   0.41890E+23   0.27857E-03   0.39533E+02  -0.10106E+01  -0.44860E-01   0.37199E+01   0.00000E+00   0.00000E+00   0.37199E+01   0.34857E+00   0.43918E+01   0.91199E-07   0.12789E-04   0.78642E+01   0.39546E+02  -0.14644E+01   0.21513E+01
   0.16418E-01   0.90741E-03   0.38189E+23   0.25395E-03   0.36643E+02  -0.27542E+01  -0.16312E-01   0.37938E+01   0.00000E+00   0.00000E+00   0.37938E+01   0.32073E+00   0.31159E+02   0.94183E-07   0.13338E-04   0.35450E+01   0.36747E+02  -0.42984E+01   0.20002E+01
   0.16582E-01   0.29630E-03   0.41277E+23   0.27449E-03   0.37326E+02  -0.12099E+01  -0.13298E+00   0.37459E+01   0.00000E+00   0.00000E+00   0.37459E+01   0.32803E+00   0.10537E+02   0.86066E-07   0.12112E-04   0.85708E+01   0.37346E+02  -0.18565E+01   0.21347E+01
   0.17236E-01   0.37037E-03   0.40412E+23   0.26874E-03   0.41102E+02  -0.29652E+00   0.19475E+00   0.37325E+01   0.00000E+00   0.00000E+00   0.37325E+01   0.36168E+00   0.11974E+02   0.89604E-07   0.12587E-04   0.70300E+01   0.41103E+02  -0.41335E+00   0.20825E+01
   0.17891E-01   0.62626E-03   0.37937E+23   0.25228E-03   0.43214E+02  -0.65017E+00   0.38148E+00   0.37205E+01   0.00000E+00   0.00000E+00   0.37205E+01   0.38093E+00   0.16774E+02   0.95284E-07   0.13363E-04   0.46975E+01   0.43221E+02  -0.86196E+00   0.19487E+01
   0.18382E-01   0.29630E-03   0.39541E+23   0.26294E-03   0.45490E+02  -0.29022E+00   0.66028E+00   0.36944E+01   0.00000E+00   0.00000E+00   0.36944E+01   0.40239E+00   0.13698E+02   0.92484E-07   0.12925E-04   0.72010E+01   0.45496E+02  -0.36553E+00   0.20168E+01
   0.17891E-01   0.29630E-03   0.40573E+23   0.26981E-03   0.44009E+02  -0.46366E+00   0.30565E+00   0.37167E+01   0.00000E+00   0.00000E+00   0.37167E+01   0.38811E+00   0.96171E+01   0.87477E-07   0.12262E-04   0.79389E+01   0.44013E+02  -0.60362E+00   0.20819E+01
   0.18382E-01   0.62626E-03   0.37439E+23   0.24897E-03   0.44635E+02  -0.25076E+00   0.49560E+00   0.37063E+01   0.00000E+00   0.00000E+00   0.37063E+01   0.39418E+00   0.19626E+02   0.98711E-07   0.13817E-04   0.43238E+01   0.44638E+02  -0.32188E+00   0.19157E+01
   0.17564E-01   0.44444E-03   0.39591E+23   0.26328E-03   0.42022E+02  -0.10770E+01   0.89963E-01   0.37268E+01   0.00000E+00   0.00000E+00   0.37268E+01   0.37017E+00   0.21656E+02   0.91225E-07   0.12805E-04   0.59659E+01   0.42036E+02  -0.14681E+01   0.20370E+01
   0.17782E-01   0.90741E-03   0.37036E+23   0.24629E-03   0.40565E+02  -0.12281E+01  -0.14755E+00   0.37567E+01   0.00000E+00   0.00000E+00   0.37567E+01   0.35596E+00   0.54023E+02   0.96674E-07   0.13624E-04   0.37187E+01   0.40583E+02  -0.17341E+01   0.19209E+01
   0.18327E-01   0.90741E-03   0.36153E+23   0.24042E-03   0.42322E+02  -0.62163E+00  -0.27187E-01   0.37712E+01   0.00000E+00   0.00000E+00   0.37712E+01   0.37053E+00   0.34772E+02   0.98097E-07   0.13851E-04   0.38125E+01   0.42326E+02  -0.84151E+00   0.18823E+01
   0.18927E-01   0.51852E-03   0.37634E+23   0.25026E-03   0.46352E+02  -0.25627E+00   0.11933E+00   0.36984E+01   0.00000E+00   0.00000E+00   0.36984E+01   0.40975E+00   0.16297E+02   0.98563E-07   0.13782E-04   0.46811E+01   0.46353E+02  -0.31678E+00   0.19216E+01
   0.19418E-01   0.69136E-03   0.35930E+23   0.23893E-03   0.46291E+02  -0.15146E+00   0.22291E+00   0.37332E+01   0.00000E+00   0.00000E+00   0.37332E+01   0.40730E+00   0.25386E+02   0.10062E-06   0.14136E-04   0.42472E+01   0.46292E+02  -0.18747E+00   0.18519E+01
   0.18764E-01   0.86420E-03   0.36370E+23   0.24186E-03   0.43081E+02  -0.56626E+00   0.15773E+00   0.37522E+01   0.00000E+00   0.00000E+00   0.37522E+01   0.37813E+00   0.41943E+02   0.99582E-07   0.14025E-04   0.38734E+01   0.43085E+02  -0.75306E+00   0.18840E+01
   0.19364E-01   0.29630E-03   0.38018E+23   0.25282E-03   0.48193E+02   0.21645E+00   0.10364E-01   0.36821E+01   0.00000E+00   0.00000E+00   0.36821E+01   0.42696E+00   0.11957E+02   0.95795E-07   0.13366E-04   0.72478E+01   0.48193E+02   0.25733E+00   0.19326E+01
   0.18873E-01   0.29630E-03   0.39881E+23   0.26521E-03   0.47053E+02  -0.44890E+00   0.13109E+00   0.36835E+01   0.00000E+00   0.00000E+00   0.36835E+01   0.41681E+00   0.92713E+01   0.92114E-07   0.12854E-04   0.72786E+01   0.47056E+02  -0.54660E+00   0.20281E+01
   0.19200E-01   0.79894E-03   0.35562E+23   0.23649E-03   0.45710E+02   0.59181E-01   0.24255E+00   0.37551E+01   0.00000E+00   0.00000E+00   0.37551E+01   0.40101E+00   0.15724E+02   0.99901E-07   0.14076E-04   0.38206E+01   0.45710E+02   0.74182E-01   0.18436E+01
   0.19091E-01   0.10165E-02   0.35355E+23   0.23511E-03   0.41769E+02  -0.24672E+00   0.14612E+00   0.37858E+01   0.00000E+00   0.00000E+00   0.37858E+01   0.36495E+00   0.29009E+02   0.10102E-06   0.14291E-04   0.36164E+01   0.41770E+02  -0.33843E+00   0.18479E+01
   0.20182E-01   0.69136E-03   0.35053E+23   0.23310E-03   0.47467E+02  -0.28921E+00   0.22580E+00   0.37164E+01   0.00000E+00   0.00000E+00   0.37164E+01   0.41859E+00   0.18535E+02   0.10317E-06   0.14461E-04   0.43256E+01   0.47468E+02  -0.34909E+00   0.17985E+01
   0.19909E-01   0.29630E-03   0.37913E+23   0.25212E-03   0.49243E+02  -0.90603E-01  -0.48523E-01   0.36734E+01   0.00000E+00   0.00000E+00   0.36734E+01   0.43678E+00   0.10542E+02   0.10392E-06   0.14482E-04   0.69138E+01   0.49243E+02  -0.10542E+00   0.19227E+01
   0.20400E-01   0.29630E-03   0.37873E+23   0.25186E-03   0.49473E+02   0.59825E-01  -0.38467E+00   0.36489E+01   0.00000E+00   0.00000E+00   0.36489E+01   0.44031E+00   0.86319E+01   0.96047E-07   0.13340E-04   0.72002E+01   0.49475E+02   0.69284E-01   0.19079E+01
   0.19855E-01   0.90741E-03   0.34606E+23   0.23013E-03   0.44709E+02   0.12715E+00   0.86177E-01   0.37612E+01   0.00000E+00   0.00000E+00   0.37612E+01   0.39191E+00   0.42118E+02   0.10481E-06   0.14779E-04   0.34621E+01   0.44709E+02   0.16294E+00   0.17970E+01
   0.20564E-01   0.51852E-03   0.35504E+23   0.23610E-03   0.49043E+02  -0.12807E+00  -0.31100E+00   0.36894E+01   0.00000E+00   0.00000E+00   0.36894E+01   0.43407E+00   0.17802E+02   0.10266E-06   0.14338E-04   0.48005E+01   0.49044E+02  -0.14962E+00   0.18084E+01
   0.19800E-01   0.48148E-03   0.36476E+23   0.24257E-03   0.47895E+02  -0.11202E+00   0.10640E+00   0.37022E+01   0.00000E+00   0.00000E+00   0.37022E+01   0.42317E+00   0.16128E+02   0.99996E-07   0.13990E-04   0.49224E+01   0.47895E+02  -0.13401E+00   0.18644E+01
   0.20400E-01   0.90741E-03   0.33903E+23   0.22545E-03   0.44954E+02   0.60910E-01  -0.25679E-01   0.37706E+01   0.00000E+00   0.00000E+00   0.37706E+01   0.39357E+00   0.33226E+02   0.10529E-06   0.14866E-04   0.35630E+01   0.44954E+02   0.77631E-01   0.17649E+01
   0.21109E-01   0.56296E-03   0.34831E+23   0.23163E-03   0.49464E+02  -0.14812E+00  -0.19075E+00   0.37031E+01   0.00000E+00   0.00000E+00   0.37031E+01   0.43698E+00   0.14131E+02   0.10449E-06   0.14620E-04   0.46804E+01   0.49465E+02  -0.17157E+00   0.17808E+01
   0.21600E-01   0.86420E-03   0.33215E+23   0.22088E-03   0.46845E+02  -0.40373E+00   0.15579E+00   0.37459E+01   0.00000E+00   0.00000E+00   0.37459E+01   0.41148E+00   0.43756E+02   0.10933E-06   0.15385E-04   0.35109E+01   0.46847E+02  -0.49379E+00   0.17178E+01
   0.21055E-01   0.86420E-03   0.33785E+23   0.22467E-03   0.46319E+02   0.48683E-01   0.74988E-01   0.37416E+01   0.00000E+00   0.00000E+00   0.37416E+01   0.40709E+00   0.22792E+02   0.10711E-06   0.15065E-04   0.37181E+01   0.46319E+02   0.60220E-01   0.17452E+01
   0.21600E-01   0.44444E-03   0.34979E+23   0.23261E-03   0.51619E+02  -0.25228E+00  -0.40518E+00   0.36777E+01   0.00000E+00   0.00000E+00   0.36777E+01   0.45761E+00   0.19133E+02   0.10464E-06   0.14591E-04   0.51880E+01   0.51622E+02  -0.28002E+00   0.17760E+01
   0.20891E-01   0.29630E-03   0.37745E+23   0.25100E-03   0.50328E+02  -0.17042E+00  -0.53246E+00   0.36488E+01   0.00000E+00   0.00000E+00   0.36488E+01   0.44793E+00   0.87747E+01   0.10001E-06   0.13891E-04   0.67339E+01   0.50331E+02  -0.19401E+00   0.19014E+01
   0.21218E-01   0.29630E-03   0.36156E+23   0.24044E-03   0.51834E+02   0.22839E+00  -0.56508E+00   0.36566E+01   0.00000E+00   0.00000E+00   0.36566E+01   0.46085E+00   0.95589E+01   0.11242E-06   0.15630E-04   0.54498E+01   0.51838E+02   0.25246E+00   0.18252E+01
   0.20836E-01   0.97168E-03   0.33771E+23   0.22458E-03   0.44161E+02  -0.37897E+00   0.13486E+00   0.37724E+01   0.00000E+00   0.00000E+00   0.37724E+01   0.38655E+00   0.41565E+02   0.10552E-06   0.14902E-04   0.36856E+01   0.44163E+02  -0.49168E+00   0.17588E+01
   0.22145E-01   0.75784E-03   0.33025E+23   0.21962E-03   0.50355E+02  -0.13455E+00  -0.22147E+00   0.36988E+01   0.00000E+00   0.00000E+00   0.36988E+01   0.44511E+00   0.39591E+02   0.10999E-06   0.15381E-04   0.40512E+01   0.50355E+02  -0.15310E+00   0.16864E+01
   0.22636E-01   0.29630E-03   0.35063E+23   0.23317E-03   0.54458E+02  -0.22853E+00  -0.13532E+00   0.36430E+01   0.00000E+00   0.00000E+00   0.36430E+01   0.48505E+00   0.12786E+02   0.11052E-06   0.15337E-04   0.62503E+01   0.54458E+02  -0.24044E+00   0.17635E+01
   0.22691E-01   0.86420E-03   0.32149E+23   0.21379E-03   0.49319E+02  -0.20523E+00  -0.10429E+00   0.37320E+01   0.00000E+00   0.00000E+00   0.37320E+01   0.43401E+00   0.36051E+02   0.11088E-06   0.15574E-04   0.38803E+01   0.49319E+02  -0.23843E+00   0.16565E+01
   0.22200E-01   0.29630E-03   0.34881E+23   0.23196E-03   0.53864E+02   0.87834E-02  -0.40092E+00   0.36488E+01   0.00000E+00   0.00000E+00   0.36488E+01   0.47939E+00   0.76320E+01   0.10692E-06   0.14850E-04   0.60932E+01   0.53866E+02   0.93429E-02   0.17572E+01
   0.22691E-01   0.62626E-03   0.33304E+23   0.22147E-03   0.52067E+02  -0.26209E+00  -0.13007E+00   0.36768E+01   0.00000E+00   0.00000E+00   0.36768E+01   0.46162E+00   0.12448E+02   0.11048E-06   0.15403E-04   0.44017E+01   0.52068E+02  -0.28841E+00   0.16905E+01
   0.21873E-01   0.44444E-03   0.35429E+23   0.23560E-03   0.51884E+02   0.97079E-01  -0.18857E+00   0.36545E+01   0.00000E+00   0.00000E+00   0.36545E+01   0.46140E+00   0.11305E+02   0.10244E-06   0.14240E-04   0.71002E+01   0.51884E+02   0.10720E+00   0.17875E+01
   0.23455E-01   0.56296E-03   0.32028E+23   0.21299E-03   0.54488E+02   0.89360E-01  -0.28005E-01   0.36601E+01   0.00000E+00   0.00000E+00   0.36601E+01   0.48418E+00   0.10074E+02   0.11371E-06   0.15817E-04   0.44830E+01   0.54488E+02   0.93965E-01   0.16184E+01
   0.23345E-01   0.90741E-03   0.30817E+23   0.20493E-03   0.49884E+02   0.28234E+00  -0.29729E+00   0.37164E+01   0.00000E+00   0.00000E+00   0.37164E+01   0.43991E+00   0.31466E+02   0.11787E-06   0.16522E-04   0.33854E+01   0.49886E+02   0.32429E+00   0.15812E+01
   0.23836E-01   0.86420E-03   0.30858E+23   0.20520E-03   0.50743E+02   0.27471E+00  -0.35893E+00   0.37048E+01   0.00000E+00   0.00000E+00   0.37048E+01   0.44819E+00   0.43182E+02   0.11717E-06   0.16398E-04   0.38012E+01   0.50745E+02   0.31018E+00   0.15783E+01
   0.23836E-01   0.37037E-03   0.33313E+23   0.22153E-03   0.56683E+02   0.23382E+00  -0.74896E-01   0.36319E+01   0.00000E+00   0.00000E+00   0.36319E+01   0.50564E+00   0.17615E+02   0.10805E-06   0.14972E-04   0.65157E+01   0.56683E+02   0.23635E+00   0.16704E+01
   0.23236E-01   0.29630E-03   0.34581E+23   0.22996E-03   0.56091E+02  -0.93849E-01  -0.45128E+00   0.36322E+01   0.00000E+00   0.00000E+00   0.36322E+01   0.50036E+00   0.11034E+02   0.10962E-06   0.15190E-04   0.67833E+01   0.56093E+02  -0.95864E-01   0.17341E+01
   0.23127E-01   0.62222E-03   0.32619E+23   0.21692E-03   0.53013E+02  -0.31421E+00  -0.25016E+00   0.36741E+01   0.00000E+00   0.00000E+00   0.36741E+01   0.47019E+00   0.24682E+02   0.11214E-06   0.15629E-04   0.42407E+01   0.53015E+02  -0.33959E+00   0.16546E+01
   0.24382E-01   0.69136E-03   0.30958E+23   0.20587E-03   0.54311E+02   0.16176E+00  -0.29967E+00   0.36792E+01   0.00000E+00   0.00000E+00   0.36792E+01   0.48136E+00   0.24413E+02   0.11698E-06   0.16315E-04   0.40940E+01   0.54312E+02   0.17065E+00   0.15725E+01
   0.24382E-01   0.37037E-03   0.32778E+23   0.21797E-03   0.57797E+02  -0.49427E-01  -0.16440E+00   0.36205E+01   0.00000E+00   0.00000E+00   0.36205E+01   0.51639E+00   0.12252E+02   0.11687E-06   0.16169E-04   0.59280E+01   0.57798E+02  -0.48998E-01   0.16384E+01
   0.24873E-01   0.90741E-03   0.29509E+23   0.19623E-03   0.52216E+02   0.41606E+00  -0.13769E+00   0.37098E+01   0.00000E+00   0.00000E+00   0.37098E+01   0.46089E+00   0.27575E+02   0.12263E-06   0.17173E-04   0.33375E+01   0.52218E+02   0.45652E+00   0.15114E+01
   0.24818E-01   0.44444E-03   0.31697E+23   0.21079E-03   0.58023E+02  -0.44814E-01   0.21988E+00   0.36354E+01   0.00000E+00   0.00000E+00   0.36354E+01   0.51734E+00   0.15749E+02   0.11443E-06   0.15864E-04   0.62945E+01   0.58023E+02  -0.44252E-01   0.15909E+01
   0.24818E-01   0.62626E-03   0.31333E+23   0.20837E-03   0.54654E+02   0.59629E+00  -0.14285E+00   0.36476E+01   0.00000E+00   0.00000E+00   0.36476E+01   0.48652E+00   0.78555E+01   0.11794E-06   0.16378E-04   0.43895E+01   0.54657E+02   0.62508E+00   0.15779E+01
   0.24491E-01   0.90741E-03   0.29591E+23   0.19678E-03   0.50940E+02  -0.39366E+00  -0.29685E+00   0.37286E+01   0.00000E+00   0.00000E+00   0.37286E+01   0.44850E+00   0.19828E+02   0.12174E-06   0.17092E-04   0.32015E+01   0.50943E+02  -0.44277E+00   0.15232E+01
   0.25636E-01   0.69136E-03   0.29992E+23   0.19945E-03   0.57412E+02  -0.23551E+00  -0.24683E+00   0.36430E+01   0.00000E+00   0.00000E+00   0.36430E+01   0.51136E+00   0.15312E+02   0.12005E-06   0.16660E-04   0.42996E+01   0.57413E+02  -0.23504E+00   0.15085E+01
   0.25309E-01   0.44444E-03   0.31259E+23   0.20787E-03   0.57595E+02   0.12618E+00   0.56569E-01   0.36174E+01   0.00000E+00   0.00000E+00   0.36174E+01   0.51480E+00   0.18381E+02   0.11748E-06   0.16247E-04   0.54820E+01   0.57595E+02   0.12553E+00   0.15611E+01
   0.25800E-01   0.29630E-03   0.31165E+23   0.20725E-03   0.60612E+02  -0.70019E-01   0.22643E-01   0.36007E+01   0.00000E+00   0.00000E+00   0.36007E+01   0.54302E+00   0.13212E+02   0.11772E-06   0.16242E-04   0.64409E+01   0.60612E+02  -0.66188E-01   0.15493E+01
   0.25364E-01   0.90741E-03   0.29059E+23   0.19324E-03   0.52931E+02  -0.36922E+00  -0.29207E-01   0.36999E+01   0.00000E+00   0.00000E+00   0.36999E+01   0.46782E+00   0.38148E+02   0.12495E-06   0.17475E-04   0.33049E+01   0.52932E+02  -0.39965E+00   0.14843E+01
   0.25964E-01   0.72222E-03   0.28909E+23   0.19224E-03   0.56023E+02  -0.12522E+00  -0.31728E+00   0.36570E+01   0.00000E+00   0.00000E+00   0.36570E+01   0.49803E+00   0.35974E+02   0.12669E-06   0.17616E-04   0.36117E+01   0.56024E+02  -0.12806E+00   0.14596E+01
   0.26564E-01   0.62626E-03   0.28628E+23   0.19038E-03   0.60408E+02   0.16949E+00   0.55921E-02   0.36100E+01   0.00000E+00   0.00000E+00   0.36100E+01   0.54050E+00   0.16703E+02   0.12828E-06   0.17722E-04   0.40426E+01   0.60408E+02   0.16075E+00   0.14268E+01
   0.27109E-01   0.75784E-03   0.27835E+23   0.18510E-03   0.59405E+02   0.28863E-01   0.31313E-01   0.36261E+01   0.00000E+00   0.00000E+00   0.36261E+01   0.53034E+00   0.27914E+02   0.13405E-06   0.18560E-04   0.33312E+01   0.59405E+02   0.27838E-01   0.13935E+01
   0.26509E-01   0.29630E-03   0.30404E+23   0.20218E-03   0.61857E+02  -0.53693E-01  -0.83522E-01   0.35719E+01   0.00000E+00   0.00000E+00   0.35719E+01   0.55640E+00   0.13305E+02   0.12149E-06   0.16694E-04   0.61692E+01   0.61857E+02  -0.49734E-01   0.14993E+01
   0.27164E-01   0.29630E-03   0.29762E+23   0.19791E-03   0.63029E+02   0.57265E-02  -0.63423E+00   0.35683E+01   0.00000E+00   0.00000E+00   0.35683E+01   0.56726E+00   0.11396E+02   0.12574E-06   0.17271E-04   0.56777E+01   0.63032E+02   0.52056E-02   0.14662E+01
   0.26400E-01   0.86420E-03   0.27845E+23   0.18517E-03   0.55626E+02   0.42719E+00  -0.10546E+00   0.36624E+01   0.00000E+00   0.00000E+00   0.36624E+01   0.49415E+00   0.33635E+02   0.13232E-06   0.18412E-04   0.31034E+01   0.55628E+02   0.44000E+00   0.14079E+01
   0.26782E-01   0.95425E-03   0.27620E+23   0.18368E-03   0.55044E+02   0.11807E+00   0.80291E-01   0.36921E+01   0.00000E+00   0.00000E+00   0.36921E+01   0.48700E+00   0.14479E+02   0.12721E-06   0.17773E-04   0.36006E+01   0.55044E+02   0.12290E+00   0.14079E+01
   0.27709E-01   0.51852E-03   0.28144E+23   0.18716E-03   0.63628E+02   0.34667E-01  -0.52904E+00   0.35770E+01   0.00000E+00   0.00000E+00   0.35770E+01   0.57195E+00   0.21681E+02   0.13190E-06   0.18139E-04   0.47292E+01   0.63630E+02   0.31217E-01   0.13898E+01
   0.27491E-01   0.86420E-03   0.26760E+23   0.17796E-03   0.57313E+02  -0.60174E-01  -0.64335E-01   0.36503E+01   0.00000E+00   0.00000E+00   0.36503E+01   0.50997E+00   0.41230E+02   0.13656E-06   0.18970E-04   0.32580E+01   0.57313E+02  -0.60155E-01   0.13486E+01
   0.28091E-01   0.90741E-03   0.26115E+23   0.17367E-03   0.58800E+02  -0.86064E-02  -0.20637E+00   0.36272E+01   0.00000E+00   0.00000E+00   0.36272E+01   0.52486E+00   0.35831E+02   0.13984E-06   0.19364E-04   0.32395E+01   0.58800E+02  -0.83863E-02   0.13078E+01
   0.28145E-01   0.44444E-03   0.27675E+23   0.18404E-03   0.65485E+02  -0.11016E+00  -0.29477E+00   0.35379E+01   0.00000E+00   0.00000E+00   0.35379E+01   0.59187E+00   0.21068E+02   0.13659E-06   0.18680E-04   0.47591E+01   0.65486E+02  -0.96382E-01   0.13518E+01
   0.28745E-01   0.62626E-03   0.26156E+23   0.17393E-03   0.65624E+02   0.34878E+00  -0.13732E+00   0.35641E+01   0.00000E+00   0.00000E+00   0.35641E+01   0.59094E+00   0.15261E+02   0.14137E-06   0.19406E-04   0.40329E+01   0.65625E+02   0.30451E+00   0.12870E+01
   0.29182E-01   0.86420E-03   0.24449E+23   0.16258E-03   0.63700E+02   0.21648E+00  -0.14054E+00   0.35840E+01   0.00000E+00   0.00000E+00   0.35840E+01   0.57202E+00   0.32765E+02   0.15085E-06   0.20764E-04   0.29776E+01   0.63701E+02   0.19472E+00   0.12097E+01
   0.29236E-01   0.37037E-03   0.26532E+23   0.17644E-03   0.68435E+02   0.54920E-01  -0.28533E+00   0.34979E+01   0.00000E+00   0.00000E+00   0.34979E+01   0.62206E+00   0.11489E+02   0.14160E-06   0.19256E-04   0.49280E+01   0.68436E+02   0.45980E-01   0.12812E+01
   0.28800E-01   0.29630E-03   0.27623E+23   0.18369E-03   0.67856E+02   0.93020E-01   0.11006E+00   0.35080E+01   0.00000E+00   0.00000E+00   0.35080E+01   0.61590E+00   0.10577E+02   0.13858E-06   0.18873E-04   0.51823E+01   0.67856E+02   0.78543E-01   0.13378E+01
   0.28636E-01   0.86420E-03   0.25183E+23   0.16747E-03   0.61072E+02   0.73860E-01  -0.78936E-01   0.36173E+01   0.00000E+00   0.00000E+00   0.36173E+01   0.54589E+00   0.34094E+02   0.14540E-06   0.20107E-04   0.30780E+01   0.61072E+02   0.69294E-01   0.12577E+01
   0.29945E-01   0.51852E-03   0.24955E+23   0.16595E-03   0.69728E+02   0.54207E-01  -0.22859E+00   0.35055E+01   0.00000E+00   0.00000E+00   0.35055E+01   0.63312E+00   0.10693E+02   0.15091E-06   0.20543E-04   0.37176E+01   0.69729E+02   0.44542E-01   0.12077E+01
   0.30327E-01   0.44444E-03   0.24894E+23   0.16555E-03   0.72228E+02   0.31039E+00   0.25250E+00   0.34660E+01   0.00000E+00   0.00000E+00   0.34660E+01   0.65955E+00   0.16794E+02   0.14918E-06   0.20194E-04   0.49257E+01   0.72230E+02   0.24622E+00   0.11912E+01
   0.30164E-01   0.90741E-03   0.23445E+23   0.15591E-03   0.64912E+02   0.10745E+00  -0.20865E+00   0.35742E+01   0.00000E+00   0.00000E+00   0.35742E+01   0.58370E+00   0.30138E+02   0.16043E-06   0.22053E-04   0.30513E+01   0.64912E+02   0.94842E-01   0.11569E+01
   0.29618E-01   0.86420E-03   0.24072E+23   0.16008E-03   0.63645E+02  -0.12216E+00  -0.21789E+00   0.36025E+01   0.00000E+00   0.00000E+00   0.36025E+01   0.57006E+00   0.33796E+02   0.15205E-06   0.20984E-04   0.31473E+01   0.63645E+02  -0.10997E+00   0.11972E+01
   0.29727E-01   0.37037E-03   0.26481E+23   0.17610E-03   0.69872E+02  -0.26314E+00  -0.24949E+00   0.34875E+01   0.00000E+00   0.00000E+00   0.34875E+01   0.63607E+00   0.11226E+02   0.14281E-06   0.19392E-04   0.56920E+01   0.69873E+02  -0.21578E+00   0.12750E+01
   0.31309E-01   0.72222E-03   0.22210E+23   0.14770E-03   0.72246E+02  -0.13605E-01   0.13223E-01   0.34935E+01   0.00000E+00   0.00000E+00   0.34935E+01   0.65711E+00   0.29866E+02   0.16861E-06   0.22915E-04   0.30871E+01   0.72246E+02  -0.10790E-01   0.10712E+01
   0.30764E-01   0.82540E-03   0.22669E+23   0.15075E-03   0.68565E+02   0.22393E+00  -0.24160E+00   0.35364E+01   0.00000E+00   0.00000E+00   0.35364E+01   0.61983E+00   0.41747E+02   0.16216E-06   0.22173E-04   0.31377E+01   0.68566E+02   0.18713E+00   0.11068E+01
   0.30873E-01   0.37037E-03   0.24559E+23   0.16332E-03   0.74626E+02   0.18851E+00  -0.29592E-01   0.34233E+01   0.00000E+00   0.00000E+00   0.34233E+01   0.68568E+00   0.10187E+02   0.15411E-06   0.20732E-04   0.55899E+01   0.74626E+02   0.14473E+00   0.11607E+01
   0.31473E-01   0.37037E-03   0.23470E+23   0.15608E-03   0.77027E+02  -0.31937E+00   0.90349E-01   0.34000E+01   0.00000E+00   0.00000E+00   0.34000E+01   0.71017E+00   0.98426E+01   0.17130E-06   0.22966E-04   0.48396E+01   0.77027E+02  -0.23756E+00   0.11017E+01
   0.32400E-01   0.59259E-03   0.21164E+23   0.14074E-03   0.81374E+02  -0.14027E+00  -0.13252E+00   0.33416E+01   0.00000E+00   0.00000E+00   0.33416E+01   0.75677E+00   0.26433E+02   0.17940E-06   0.23845E-04   0.37649E+01   0.81374E+02  -0.98767E-01   0.97638E+00
   0.31855E-01   0.44444E-03   0.22646E+23   0.15060E-03   0.77983E+02  -0.84296E-01   0.20293E+00   0.33858E+01   0.00000E+00   0.00000E+00   0.33858E+01   0.72048E+00   0.15691E+02   0.16937E-06   0.22660E-04   0.44790E+01   0.77984E+02  -0.61934E-01   0.10586E+01
   0.31964E-01   0.86420E-03   0.20882E+23   0.13886E-03   0.73070E+02   0.13921E+00  -0.63789E-02   0.34803E+01   0.00000E+00   0.00000E+00   0.34803E+01   0.66586E+00   0.38836E+02   0.18097E-06   0.24547E-04   0.26584E+01   0.73070E+02   0.10916E+00   0.10034E+01
   0.33055E-01   0.44444E-03   0.20426E+23   0.13584E-03   0.86245E+02   0.25362E+00   0.23887E+00   0.32779E+01   0.00000E+00   0.00000E+00   0.32779E+01   0.80983E+00   0.18063E+02   0.18902E-06   0.24883E-04   0.41946E+01   0.86245E+02   0.16849E+00   0.92438E+00
   0.32945E-01   0.86420E-03   0.19140E+23   0.12728E-03   0.80563E+02   0.13076E+00  -0.10697E+00   0.33913E+01   0.00000E+00   0.00000E+00   0.33913E+01   0.74371E+00   0.27307E+02   0.19830E-06   0.26553E-04   0.26863E+01   0.80563E+02   0.92998E-01   0.89612E+00
   0.33655E-01   0.51852E-03   0.19383E+23   0.12890E-03   0.89605E+02   0.27981E+00   0.14022E+00   0.32084E+01   0.00000E+00   0.00000E+00   0.32084E+01   0.85043E+00   0.18201E+02   0.19771E-06   0.25750E-04   0.41702E+01   0.89605E+02   0.17892E+00   0.85857E+00
   0.33600E-01   0.90741E-03   0.18129E+23   0.12056E-03   0.83167E+02   0.33214E+00   0.65040E-01   0.33431E+01   0.00000E+00   0.00000E+00   0.33431E+01   0.77328E+00   0.25039E+02   0.21224E-06   0.28216E-04   0.25399E+01   0.83168E+02   0.22882E+00   0.83672E+00
   0.34418E-01   0.51852E-03   0.17990E+23   0.11963E-03   0.95969E+02   0.54712E+00   0.12002E+00   0.31125E+01   0.00000E+00   0.00000E+00   0.31125E+01   0.92478E+00   0.24601E+02   0.22021E-06   0.28247E-04   0.38652E+01   0.95971E+02   0.32664E+00   0.77303E+00
   0.34364E-01   0.86420E-03   0.16303E+23   0.10841E-03   0.91897E+02   0.10552E+01   0.32658E-02   0.32083E+01   0.00000E+00   0.00000E+00   0.32083E+01   0.87226E+00   0.30988E+02   0.23435E-06   0.30521E-04   0.24378E+01   0.91903E+02   0.65787E+00   0.72211E+00
   0.35618E-01   0.75784E-03   0.14972E+23   0.99564E-04   0.10140E+03   0.26626E+01   0.20156E+00   0.30366E+01   0.00000E+00   0.00000E+00   0.30366E+01   0.98961E+00   0.21293E+02   0.26909E-06   0.34095E-04   0.25171E+01   0.10144E+03   0.15041E+01   0.62769E+00
   0.35127E-01   0.86243E-03   0.15187E+23   0.10099E-03   0.96433E+02   0.21443E+01  -0.44229E-01   0.31344E+01   0.00000E+00   0.00000E+00   0.31344E+01   0.92621E+00   0.36552E+02   0.26057E-06   0.33543E-04   0.23955E+01   0.96457E+02   0.12738E+01   0.65718E+00
   0.35455E-01   0.29630E-03   0.16393E+23   0.10902E-03   0.10411E+03   0.91647E+00  -0.23011E+00   0.29685E+01   0.00000E+00   0.00000E+00   0.29685E+01   0.10273E+01   0.11583E+02   0.23583E-06   0.29544E-04   0.45690E+01   0.10412E+03   0.50435E+00   0.67186E+00
   0.36436E-01   0.66667E-03   0.14609E+23   0.97148E-04   0.98530E+02   0.23923E+01   0.25554E-01   0.30877E+01   0.00000E+00   0.00000E+00   0.30877E+01   0.95353E+00   0.35693E+02   0.26720E-06   0.34138E-04   0.29049E+01   0.98559E+02   0.13909E+01   0.62275E+00
   0.36873E-01   0.51852E-03   0.15099E+23   0.10041E-03   0.99675E+02   0.13743E+01  -0.49672E-01   0.30674E+01   0.00000E+00   0.00000E+00   0.30674E+01   0.96760E+00   0.12458E+02   0.26047E-06   0.33169E-04   0.37339E+01   0.99684E+02   0.78996E+00   0.63942E+00
   0.37691E-01   0.59259E-03   0.14730E+23   0.97954E-04   0.95219E+02   0.13839E+01  -0.11053E+00   0.31620E+01   0.00000E+00   0.00000E+00   0.31620E+01   0.91042E+00   0.21486E+02   0.25275E-06   0.32678E-04   0.40012E+01   0.95229E+02   0.83268E+00   0.64303E+00
   0.37418E-01   0.89383E-03   0.13814E+23   0.91860E-04   0.89849E+02   0.29395E+01  -0.14075E-01   0.32596E+01   0.00000E+00   0.00000E+00   0.32596E+01   0.84647E+00   0.39795E+02   0.27852E-06   0.36562E-04   0.22433E+01   0.89897E+02   0.18739E+01   0.62164E+00
   0.38891E-01   0.74074E-03   0.13815E+23   0.91871E-04   0.88138E+02   0.17991E+01  -0.19877E+00   0.33013E+01   0.00000E+00   0.00000E+00   0.33013E+01   0.82483E+00   0.36336E+02   0.27791E-06   0.36715E-04   0.25588E+01   0.88156E+02   0.11694E+01   0.62966E+00
   0.38345E-01   0.81482E-03   0.13675E+23   0.90940E-04   0.87282E+02   0.24722E+01  -0.14341E+00   0.33118E+01   0.00000E+00   0.00000E+00   0.33118E+01   0.81569E+00   0.37464E+02   0.27766E-06   0.36739E-04   0.25366E+01   0.87317E+02   0.16225E+01   0.62526E+00
   0.39818E-01   0.66667E-03   0.14076E+23   0.93608E-04   0.86421E+02   0.16685E+01   0.12051E+00   0.33194E+01   0.00000E+00   0.00000E+00   0.33194E+01   0.80654E+00   0.28938E+02   0.26920E-06   0.35661E-04   0.30235E+01   0.86437E+02   0.11060E+01   0.64509E+00