VARIABLES = "X","Y","ND","D","U","V","W","TTR","TRT","TVB","TOV","MA","MC","MCT","MFP","SOF","FSP","ANG","P"
 ZONE I=         367  F=POINT
   0.15927E-01   0.66667E-03   0.45981E+22   0.30577E-04   0.18198E+02  -0.12146E+01  -0.10119E-01   0.40184E+01   0.00000E+00   0.00000E+00   0.40184E+01   0.15467E+00   0.24355E+02   0.75463E-06   0.10999E-03   0.15536E+01   0.18239E+02  -0.38185E+01   0.25509E+00
   0.17727E-01   0.66667E-03   0.43803E+22   0.29129E-04   0.22184E+02  -0.11636E+00  -0.30834E+00   0.39474E+01   0.00000E+00   0.00000E+00   0.39474E+01   0.18983E+00   0.18929E+02   0.77393E-06   0.11180E-03   0.15756E+01   0.22186E+02  -0.30052E+00   0.23872E+00
   0.19091E-01   0.66667E-03   0.42342E+22   0.28158E-04   0.23437E+02  -0.28589E+00  -0.11917E+00   0.39254E+01   0.00000E+00   0.00000E+00   0.39254E+01   0.20112E+00   0.13993E+02   0.82629E-06   0.11903E-03   0.15113E+01   0.23439E+02  -0.69887E+00   0.22947E+00
   0.20236E-01   0.66667E-03   0.40897E+22   0.27197E-04   0.24454E+02   0.18276E+00  -0.96912E-02   0.39180E+01   0.00000E+00   0.00000E+00   0.39180E+01   0.21003E+00   0.13534E+02   0.85322E-06   0.12280E-03   0.14367E+01   0.24455E+02   0.42819E+00   0.22122E+00
   0.21545E-01   0.66667E-03   0.38977E+22   0.25920E-04   0.24999E+02   0.59889E-01   0.16720E+00   0.39176E+01   0.00000E+00   0.00000E+00   0.39176E+01   0.21472E+00   0.19792E+02   0.85561E-06   0.12314E-03   0.14694E+01   0.25000E+02   0.13726E+00   0.21082E+00
   0.23182E-01   0.66667E-03   0.36293E+22   0.24135E-04   0.27197E+02  -0.36531E+00   0.75249E-01   0.39099E+01   0.00000E+00   0.00000E+00   0.39099E+01   0.23385E+00   0.14459E+02   0.92238E-06   0.13261E-03   0.15059E+01   0.27200E+02  -0.76955E+00   0.19591E+00
   0.24818E-01   0.66667E-03   0.34321E+22   0.22824E-04   0.28732E+02   0.19743E+00   0.21159E+00   0.39011E+01   0.00000E+00   0.00000E+00   0.39011E+01   0.24731E+00   0.14409E+02   0.10145E-05   0.14570E-03   0.12565E+01   0.28733E+02   0.39371E+00   0.18485E+00
   0.26836E-01   0.74074E-03   0.30878E+22   0.20534E-04   0.30484E+02  -0.14143E-01  -0.11473E+00   0.38913E+01   0.00000E+00   0.00000E+00   0.38913E+01   0.26271E+00   0.17763E+02   0.10605E-05   0.15211E-03   0.13812E+01   0.30484E+02  -0.26582E-01   0.16589E+00
   0.28964E-01   0.74074E-03   0.27070E+22   0.18001E-04   0.34588E+02  -0.41761E-01   0.12298E+00   0.38680E+01   0.00000E+00   0.00000E+00   0.38680E+01   0.29898E+00   0.16892E+02   0.11936E-05   0.17069E-03   0.13649E+01   0.34589E+02  -0.69176E-01   0.14456E+00
   0.31091E-01   0.59259E-03   0.22804E+22   0.15165E-04   0.41685E+02   0.77984E-01  -0.10377E-01   0.38214E+01   0.00000E+00   0.00000E+00   0.38214E+01   0.36251E+00   0.99790E+01   0.13668E-05   0.19428E-03   0.11769E+01   0.41685E+02   0.10719E+00   0.12031E+00
   0.33218E-01   0.81482E-03   0.18451E+22   0.12270E-04   0.48800E+02   0.16110E+00   0.57446E-01   0.37878E+01   0.00000E+00   0.00000E+00   0.37878E+01   0.42626E+00   0.11817E+02   0.19152E-05   0.27102E-03   0.96833E+00   0.48800E+02   0.18915E+00   0.96488E-01
   0.38618E-01   0.81482E-03   0.11174E+22   0.74304E-05   0.27956E+02   0.29861E+01   0.11336E+00   0.39251E+01   0.00000E+00   0.00000E+00   0.39251E+01   0.24125E+00   0.10711E+02   0.30995E-05   0.44648E-03   0.67703E+00   0.28115E+02   0.60970E+01   0.60550E-01
   0.44127E-01   0.74074E-03   0.10759E+22   0.71549E-05   0.11877E+02   0.28200E+00   0.11585E+00   0.39582E+01   0.00000E+00   0.00000E+00   0.39582E+01   0.10152E+00   0.11476E+02   0.32205E-05   0.46586E-03   0.67351E+00   0.11881E+02   0.13602E+01   0.58796E-01
   0.50782E-01   0.74074E-03   0.10524E+22   0.69981E-05   0.99980E+01  -0.64023E-03   0.46804E-01   0.39462E+01   0.00000E+00   0.00000E+00   0.39462E+01   0.85562E-01   0.11196E+02   0.32884E-05   0.47497E-03   0.66200E+00   0.99981E+01  -0.36690E-02   0.57333E-01
   0.57164E-01   0.81482E-03   0.10283E+22   0.68384E-05   0.10401E+02   0.13090E-01   0.20993E+00   0.39545E+01   0.00000E+00   0.00000E+00   0.39545E+01   0.88934E-01   0.96139E+01   0.33639E-05   0.48639E-03   0.70996E+00   0.10403E+02   0.72109E-01   0.56143E-01
   0.63927E-01   0.10370E-02   0.10083E+22   0.67049E-05   0.10439E+02  -0.13128E-01   0.79924E-01   0.39323E+01   0.00000E+00   0.00000E+00   0.39323E+01   0.89496E-01   0.11012E+02   0.34465E-05   0.49693E-03   0.64428E+00   0.10439E+02  -0.72054E-01   0.54738E-01
   0.70255E-01   0.11111E-02   0.98093E+21   0.65232E-05   0.11079E+02  -0.40402E-01  -0.23828E-01   0.39396E+01   0.00000E+00   0.00000E+00   0.39396E+01   0.94892E-01   0.14523E+02   0.35230E-05   0.50842E-03   0.63183E+00   0.11079E+02  -0.20894E+00   0.53353E-01
   0.77782E-01   0.10370E-02   0.94588E+21   0.62901E-05   0.11410E+02  -0.27252E-01  -0.23430E+00   0.39338E+01   0.00000E+00   0.00000E+00   0.39338E+01   0.97817E-01   0.93562E+01   0.36695E-05   0.52918E-03   0.63287E+00   0.11412E+02  -0.13685E+00   0.51371E-01
   0.84655E-01   0.12593E-02   0.89740E+21   0.59677E-05   0.19216E+02  -0.25150E+01   0.10060E+00   0.39727E+01   0.00000E+00   0.00000E+00   0.39727E+01   0.16530E+00   0.15172E+02   0.37715E-05   0.54657E-03   0.44390E+00   0.19380E+02  -0.74565E+01   0.49220E-01
   0.15218E-01   0.15157E-02   0.47633E+22   0.31676E-04   0.11873E+02  -0.14176E+01   0.17405E-01   0.40743E+01   0.00000E+00   0.00000E+00   0.40743E+01   0.10070E+00   0.19650E+02   0.72898E-06   0.10699E-03   0.96958E+00   0.11957E+02  -0.68091E+01   0.26794E+00
   0.15818E-01   0.13611E-02   0.46469E+22   0.30902E-04   0.15202E+02  -0.14646E+01  -0.23029E+00   0.40223E+01   0.00000E+00   0.00000E+00   0.40223E+01   0.12947E+00   0.29677E+02   0.74006E-06   0.10792E-03   0.99704E+00   0.15274E+02  -0.55030E+01   0.25805E+00
   0.15982E-01   0.18384E-02   0.46703E+22   0.31057E-04   0.80823E+01  -0.17863E+00  -0.78595E-01   0.40091E+01   0.00000E+00   0.00000E+00   0.40091E+01   0.68643E-01   0.17606E+02   0.72487E-06   0.10553E-03   0.87574E+00   0.80847E+01  -0.12661E+01   0.25849E+00
   0.17018E-01   0.17870E-02   0.45086E+22   0.29982E-04   0.83505E+01   0.30529E-02   0.45403E-01   0.39970E+01   0.00000E+00   0.00000E+00   0.39970E+01   0.71008E-01   0.28341E+02   0.75878E-06   0.11030E-03   0.87559E+00   0.83506E+01   0.20947E-01   0.24879E+00
   0.16909E-01   0.10556E-02   0.44914E+22   0.29868E-04   0.17841E+02  -0.33111E+00   0.22450E+00   0.39787E+01   0.00000E+00   0.00000E+00   0.39787E+01   0.15210E+00   0.33003E+02   0.77172E-06   0.11192E-03   0.11807E+01   0.17846E+02  -0.10632E+01   0.24671E+00
   0.18000E-01   0.15556E-02   0.43707E+22   0.29065E-04   0.13107E+02  -0.10300E-01   0.12962E-01   0.39822E+01   0.00000E+00   0.00000E+00   0.39822E+01   0.11166E+00   0.40802E+02   0.78888E-06   0.11446E-03   0.89966E+00   0.13107E+02  -0.45022E-01   0.24029E+00
   0.18982E-01   0.13172E-02   0.42480E+22   0.28249E-04   0.16272E+02  -0.13238E+00   0.69675E-01   0.39707E+01   0.00000E+00   0.00000E+00   0.39707E+01   0.13883E+00   0.28310E+02   0.80959E-06   0.11730E-03   0.97251E+00   0.16273E+02  -0.46613E+00   0.23287E+00
   0.18927E-01   0.18384E-02   0.42480E+22   0.28249E-04   0.76126E+01   0.67403E-01   0.95109E-01   0.39919E+01   0.00000E+00   0.00000E+00   0.39919E+01   0.64781E-01   0.20487E+02   0.81231E-06   0.11801E-03   0.80482E+00   0.76135E+01   0.50729E+00   0.23412E+00
   0.20127E-01   0.13172E-02   0.40850E+22   0.27165E-04   0.16810E+02  -0.76619E-01  -0.12329E+00   0.39604E+01   0.00000E+00   0.00000E+00   0.39604E+01   0.14360E+00   0.29905E+02   0.84716E-06   0.12258E-03   0.88671E+00   0.16810E+02  -0.26115E+00   0.22336E+00
   0.20073E-01   0.18384E-02   0.41053E+22   0.27300E-04   0.77537E+01   0.17402E+00  -0.56480E-01   0.39874E+01   0.00000E+00   0.00000E+00   0.39874E+01   0.66029E-01   0.18526E+02   0.83993E-06   0.12195E-03   0.82688E+00   0.77559E+01   0.12857E+01   0.22600E+00
   0.21382E-01   0.13172E-02   0.39343E+22   0.26163E-04   0.17795E+02   0.23823E+00   0.28974E-01   0.39583E+01   0.00000E+00   0.00000E+00   0.39583E+01   0.15207E+00   0.30166E+02   0.87410E-06   0.12645E-03   0.91712E+00   0.17797E+02   0.76699E+00   0.21501E+00
   0.21218E-01   0.18384E-02   0.39446E+22   0.26231E-04   0.83539E+01   0.31813E+00   0.19029E+00   0.39902E+01   0.00000E+00   0.00000E+00   0.39902E+01   0.71165E-01   0.19581E+02   0.87595E-06   0.12723E-03   0.80884E+00   0.83621E+01   0.21808E+01   0.21730E+00
   0.22364E-01   0.14444E-02   0.37735E+22   0.25094E-04   0.14155E+02   0.57990E-01  -0.35383E-01   0.39737E+01   0.00000E+00   0.00000E+00   0.39737E+01   0.12072E+00   0.38977E+02   0.91215E-06   0.13221E-03   0.92239E+00   0.14156E+02   0.23472E+00   0.20702E+00
   0.23455E-01   0.17372E-02   0.36186E+22   0.24064E-04   0.11568E+02   0.17634E+00   0.30178E+00   0.39807E+01   0.00000E+00   0.00000E+00   0.39807E+01   0.98615E-01   0.24643E+02   0.93918E-06   0.13625E-03   0.74997E+00   0.11574E+02   0.87331E+00   0.19887E+00
   0.23291E-01   0.11444E-02   0.36475E+22   0.24256E-04   0.21548E+02  -0.22745E+00   0.76261E-01   0.39375E+01   0.00000E+00   0.00000E+00   0.39375E+01   0.18462E+00   0.22030E+02   0.95481E-06   0.13776E-03   0.85193E+00   0.21550E+02  -0.60475E+00   0.19828E+00
   0.24491E-01   0.15556E-02   0.34565E+22   0.22985E-04   0.15533E+02   0.25782E-02   0.22133E+00   0.39767E+01   0.00000E+00   0.00000E+00   0.39767E+01   0.13243E+00   0.37168E+02   0.99669E-06   0.14452E-03   0.80083E+00   0.15535E+02   0.95102E-02   0.18977E+00
   0.25582E-01   0.17870E-02   0.32825E+22   0.21828E-04   0.10930E+02   0.29199E+00   0.39693E-01   0.39846E+01   0.00000E+00   0.00000E+00   0.39846E+01   0.93120E-01   0.18000E+02   0.10463E-05   0.15186E-03   0.71878E+00   0.10934E+02   0.15302E+01   0.18057E+00
   0.25636E-01   0.11111E-02   0.32763E+22   0.21787E-04   0.23756E+02   0.34677E+00   0.33381E+00   0.39391E+01   0.00000E+00   0.00000E+00   0.39391E+01   0.20353E+00   0.30287E+02   0.10626E-05   0.15334E-03   0.10089E+01   0.23761E+02   0.83629E+00   0.17818E+00
   0.26782E-01   0.15979E-02   0.30862E+22   0.20523E-04   0.16453E+02   0.46300E-01   0.17800E+00   0.39735E+01   0.00000E+00   0.00000E+00   0.39735E+01   0.14033E+00   0.31202E+02   0.11209E-05   0.16246E-03   0.74905E+00   0.16454E+02   0.16123E+00   0.16930E+00
   0.27818E-01   0.13481E-02   0.28925E+22   0.19235E-04   0.21667E+02   0.35660E-01  -0.55055E-01   0.39556E+01   0.00000E+00   0.00000E+00   0.39556E+01   0.18520E+00   0.37287E+02   0.11993E-05   0.17343E-03   0.81346E+00   0.21667E+02   0.94298E-01   0.15796E+00
   0.28964E-01   0.15979E-02   0.26924E+22   0.17904E-04   0.18670E+02   0.20499E+00   0.13725E+00   0.39642E+01   0.00000E+00   0.00000E+00   0.39642E+01   0.15942E+00   0.29528E+02   0.12789E-05   0.18514E-03   0.71425E+00   0.18671E+02   0.62908E+00   0.14735E+00
   0.30000E-01   0.13481E-02   0.24781E+22   0.16479E-04   0.24814E+02   0.13460E+00   0.20191E+00   0.39478E+01   0.00000E+00   0.00000E+00   0.39478E+01   0.21232E+00   0.33132E+02   0.13816E-05   0.19960E-03   0.76129E+00   0.24815E+02   0.31079E+00   0.13507E+00
   0.31145E-01   0.15157E-02   0.22818E+22   0.15174E-04   0.25881E+02   0.31178E+00   0.10337E+00   0.39408E+01   0.00000E+00   0.00000E+00   0.39408E+01   0.22165E+00   0.26003E+02   0.14994E-05   0.21642E-03   0.63887E+00   0.25883E+02   0.69020E+00   0.12414E+00
   0.32291E-01   0.13651E-02   0.20553E+22   0.13667E-04   0.29659E+02   0.16089E-01  -0.14002E-01   0.39256E+01   0.00000E+00   0.00000E+00   0.39256E+01   0.25448E+00   0.27169E+02   0.16872E-05   0.24307E-03   0.67740E+00   0.29659E+02   0.31081E-01   0.11139E+00
   0.33327E-01   0.16424E-02   0.17907E+22   0.11908E-04   0.27064E+02   0.32840E+00   0.97081E-01   0.39510E+01   0.00000E+00   0.00000E+00   0.39510E+01   0.23149E+00   0.16521E+02   0.19206E-05   0.27757E-03   0.55864E+00   0.27066E+02   0.69521E+00   0.97677E-01
   0.34582E-01   0.13333E-02   0.14844E+22   0.98710E-05   0.44911E+02   0.25288E+01  -0.77849E-02   0.38283E+01   0.00000E+00   0.00000E+00   0.38283E+01   0.39083E+00   0.29535E+02   0.23007E-05   0.32730E-03   0.59941E+00   0.44982E+02   0.32227E+01   0.78453E-01
   0.36491E-01   0.14815E-02   0.11596E+22   0.77114E-05   0.34636E+02   0.88912E+01   0.59864E-01   0.39019E+01   0.00000E+00   0.00000E+00   0.39019E+01   0.30775E+00   0.38983E+02   0.29775E-05   0.42764E-03   0.45577E+00   0.35759E+02   0.14397E+02   0.62468E-01
   0.38455E-01   0.17284E-02   0.11170E+22   0.74278E-05   0.20128E+02   0.54893E+01   0.32480E-01   0.39584E+01   0.00000E+00   0.00000E+00   0.39584E+01   0.17827E+00   0.22377E+02   0.30724E-05   0.44446E-03   0.40772E+00   0.20863E+02   0.15255E+02   0.61042E-01
   0.40036E-01   0.14815E-02   0.11059E+22   0.73542E-05   0.16027E+02   0.26265E+01  -0.34863E+00   0.39725E+01   0.00000E+00   0.00000E+00   0.39725E+01   0.13856E+00   0.24948E+02   0.31035E-05   0.44976E-03   0.49702E+00   0.16245E+02   0.93069E+01   0.60651E-01
   0.41945E-01   0.14815E-02   0.10955E+22   0.72853E-05   0.12726E+02   0.97436E+00   0.76242E-01   0.39684E+01   0.00000E+00   0.00000E+00   0.39684E+01   0.10892E+00   0.35561E+02   0.31231E-05   0.45236E-03   0.45365E+00   0.12763E+02   0.43784E+01   0.60021E-01
   0.44073E-01   0.17284E-02   0.10909E+22   0.72545E-05   0.10719E+02   0.52789E+00   0.34854E+00   0.39709E+01   0.00000E+00   0.00000E+00   0.39709E+01   0.91602E-01   0.25535E+02   0.31414E-05   0.45516E-03   0.40104E+00   0.10737E+02   0.28195E+01   0.59806E-01
   0.46309E-01   0.14815E-02   0.10802E+22   0.71836E-05   0.10081E+02   0.26741E+00  -0.26073E-01   0.39601E+01   0.00000E+00   0.00000E+00   0.39601E+01   0.86150E-01   0.34202E+02   0.31796E-05   0.46007E-03   0.47376E+00   0.10085E+02   0.15195E+01   0.59060E-01
   0.48600E-01   0.14815E-02   0.10728E+22   0.71344E-05   0.96503E+01   0.91299E-01  -0.70966E-01   0.39612E+01   0.00000E+00   0.00000E+00   0.39612E+01   0.82435E-01   0.34839E+02   0.31936E-05   0.46215E-03   0.44617E+00   0.96510E+01   0.54204E+00   0.58672E-01
   0.50782E-01   0.19956E-02   0.10673E+22   0.70975E-05   0.93807E+01  -0.18471E-01   0.17567E+00   0.39736E+01   0.00000E+00   0.00000E+00   0.39736E+01   0.80016E-01   0.29871E+02   0.32111E-05   0.46541E-03   0.37940E+00   0.93824E+01  -0.11282E+00   0.58551E-01
   0.52909E-01   0.14815E-02   0.10535E+22   0.70059E-05   0.96803E+01  -0.86136E-01   0.10360E+00   0.39668E+01   0.00000E+00   0.00000E+00   0.39668E+01   0.82634E-01   0.32007E+02   0.32579E-05   0.47180E-03   0.45133E+00   0.96812E+01  -0.50981E+00   0.57697E-01
   0.55091E-01   0.14815E-02   0.10459E+22   0.69550E-05   0.99905E+01  -0.21421E-01   0.36195E+00   0.39585E+01   0.00000E+00   0.00000E+00   0.39585E+01   0.85420E-01   0.32304E+02   0.32909E-05   0.47608E-03   0.47292E+00   0.99971E+01  -0.12285E+00   0.57158E-01
   0.57000E-01   0.17284E-02   0.10435E+22   0.69393E-05   0.97396E+01   0.66616E-01   0.41768E+00   0.39621E+01   0.00000E+00   0.00000E+00   0.39621E+01   0.83260E-01   0.18313E+02   0.32891E-05   0.47603E-03   0.40217E+00   0.97488E+01   0.39188E+00   0.57081E-01
   0.58582E-01   0.14815E-02   0.10345E+22   0.68793E-05   0.99595E+01  -0.46648E-01   0.67789E+00   0.39607E+01   0.00000E+00   0.00000E+00   0.39607E+01   0.85274E-01   0.23337E+02   0.33097E-05   0.47892E-03   0.40707E+00   0.99827E+01  -0.26836E+00   0.56567E-01
   0.60545E-01   0.17778E-02   0.10278E+22   0.68346E-05   0.99598E+01   0.60266E-01  -0.76901E-01   0.39505E+01   0.00000E+00   0.00000E+00   0.39505E+01   0.85192E-01   0.38317E+02   0.33357E-05   0.48206E-03   0.42842E+00   0.99603E+01   0.34669E+00   0.56055E-01
   0.62727E-01   0.14815E-02   0.10205E+22   0.67861E-05   0.10014E+02  -0.41284E-01  -0.22883E+00   0.39535E+01   0.00000E+00   0.00000E+00   0.39535E+01   0.85638E-01   0.28342E+02   0.33630E-05   0.48620E-03   0.42193E+00   0.10016E+02  -0.23622E+00   0.55699E-01
   0.64909E-01   0.14815E-02   0.10071E+22   0.66972E-05   0.99965E+01   0.57122E-01  -0.32609E+00   0.39617E+01   0.00000E+00   0.00000E+00   0.39617E+01   0.85427E-01   0.27402E+02   0.34158E-05   0.49435E-03   0.45892E+00   0.10002E+02   0.32739E+00   0.55084E-01
   0.67091E-01   0.14815E-02   0.99885E+21   0.66423E-05   0.10418E+02  -0.10958E+00   0.17067E-01   0.39539E+01   0.00000E+00   0.00000E+00   0.39539E+01   0.89076E-01   0.33943E+02   0.34483E-05   0.49856E-03   0.46864E+00   0.10419E+02  -0.60259E+00   0.54525E-01
   0.69327E-01   0.14815E-02   0.99304E+21   0.66037E-05   0.10647E+02  -0.12237E+00  -0.13720E+00   0.39597E+01   0.00000E+00   0.00000E+00   0.39597E+01   0.90973E-01   0.29346E+02   0.34508E-05   0.49929E-03   0.38438E+00   0.10649E+02  -0.65850E+00   0.54287E-01
   0.72382E-01   0.15556E-02   0.97414E+21   0.64780E-05   0.10813E+02   0.27490E-01  -0.50141E-01   0.39651E+01   0.00000E+00   0.00000E+00   0.39651E+01   0.92320E-01   0.34107E+02   0.35126E-05   0.50857E-03   0.43498E+00   0.10814E+02   0.14566E+00   0.53327E-01
   0.74673E-01   0.15556E-02   0.97091E+21   0.64565E-05   0.10827E+02  -0.88011E-01   0.33105E-01   0.39545E+01   0.00000E+00   0.00000E+00   0.39545E+01   0.92564E-01   0.36273E+02   0.35351E-05   0.51115E-03   0.42114E+00   0.10828E+02  -0.46572E+00   0.53008E-01
   0.76964E-01   0.14815E-02   0.96390E+21   0.64099E-05   0.10781E+02   0.13472E+00  -0.18382E+00   0.39500E+01   0.00000E+00   0.00000E+00   0.39500E+01   0.92238E-01   0.27588E+02   0.35676E-05   0.51555E-03   0.40142E+00   0.10783E+02   0.71595E+00   0.52564E-01
   0.79091E-01   0.17778E-02   0.95246E+21   0.63339E-05   0.10680E+02  -0.62589E-01  -0.56734E-01   0.39586E+01   0.00000E+00   0.00000E+00   0.39586E+01   0.91258E-01   0.30092E+02   0.36036E-05   0.52131E-03   0.40373E+00   0.10680E+02  -0.33577E+00   0.52054E-01
   0.81218E-01   0.14815E-02   0.93851E+21   0.62411E-05   0.11420E+02  -0.31200E+00   0.13599E-01   0.39566E+01   0.00000E+00   0.00000E+00   0.39566E+01   0.97635E-01   0.28513E+02   0.36404E-05   0.52650E-03   0.37464E+00   0.11424E+02  -0.15650E+01   0.51266E-01
   0.83455E-01   0.14815E-02   0.92635E+21   0.61602E-05   0.13337E+02  -0.14383E+01  -0.16744E+00   0.39656E+01   0.00000E+00   0.00000E+00   0.39656E+01   0.11452E+00   0.28308E+02   0.36948E-05   0.53498E-03   0.41758E+00   0.13415E+02  -0.61555E+01   0.50717E-01
   0.87000E-01   0.15556E-02   0.77867E+21   0.51781E-05   0.40753E+02  -0.94101E+01  -0.32588E-01   0.38834E+01   0.00000E+00   0.00000E+00   0.38834E+01   0.36082E+00   0.34784E+02   0.46884E-05   0.67177E-03   0.35624E+00   0.41825E+02  -0.13002E+02   0.41747E-01
   0.89836E-01   0.22222E-02   0.21971E+21   0.14611E-05   0.10904E+03   0.30998E+02   0.64505E-01   0.25201E+01   0.00000E+00   0.00000E+00   0.25201E+01   0.12140E+01   0.16283E+02   0.25731E-04   0.29700E-02   0.13319E+00   0.11336E+03   0.15870E+02   0.76443E-02
   0.35400E-01   0.26586E-02   0.10541E+22   0.70099E-05   0.70919E+01   0.34988E+01   0.10322E-01   0.39722E+01   0.00000E+00   0.00000E+00   0.39722E+01   0.67453E-01   0.22016E+02   0.32638E-05   0.47297E-03   0.29562E+00   0.79080E+01   0.26260E+02   0.57808E-01
   0.36709E-01   0.27680E-02   0.10979E+22   0.73008E-05   0.99234E+01   0.59130E+01   0.14391E+00   0.39823E+01   0.00000E+00   0.00000E+00   0.39823E+01   0.98414E-01   0.35752E+02   0.31099E-05   0.45124E-03   0.30305E+00   0.11552E+02   0.30789E+02   0.60360E-01
   0.38509E-01   0.28148E-02   0.11157E+22   0.74196E-05   0.11553E+02   0.51139E+01   0.19179E+00   0.39920E+01   0.00000E+00   0.00000E+00   0.39920E+01   0.10751E+00   0.32738E+02   0.30553E-05   0.44386E-03   0.29394E+00   0.12635E+02   0.23877E+02   0.61492E-01
   0.39764E-01   0.28148E-02   0.11146E+22   0.74124E-05   0.10248E+02   0.32818E+01   0.82983E-01   0.39989E+01   0.00000E+00   0.00000E+00   0.39989E+01   0.91485E-01   0.25496E+02   0.30643E-05   0.44555E-03   0.30912E+00   0.10761E+02   0.17756E+02   0.61538E-01
   0.40909E-01   0.26345E-02   0.11139E+22   0.74073E-05   0.10116E+02   0.20839E+01  -0.52096E-01   0.39919E+01   0.00000E+00   0.00000E+00   0.39919E+01   0.87879E-01   0.29576E+02   0.30609E-05   0.44466E-03   0.30106E+00   0.10328E+02   0.11640E+02   0.61388E-01
   0.42000E-01   0.28148E-02   0.11098E+22   0.73804E-05   0.92270E+01   0.12299E+01   0.29918E+00   0.39950E+01   0.00000E+00   0.00000E+00   0.39950E+01   0.79214E-01   0.25295E+02   0.30758E-05   0.44700E-03   0.30354E+00   0.93134E+01   0.75926E+01   0.61214E-01
   0.43091E-01   0.26345E-02   0.11065E+22   0.73583E-05   0.90927E+01   0.76719E+00   0.11016E+00   0.39905E+01   0.00000E+00   0.00000E+00   0.39905E+01   0.77661E-01   0.28952E+02   0.30870E-05   0.44837E-03   0.30944E+00   0.91256E+01   0.48229E+01   0.60960E-01
   0.44182E-01   0.28148E-02   0.11045E+22   0.73452E-05   0.87898E+01   0.54545E+00   0.12005E+00   0.39880E+01   0.00000E+00   0.00000E+00   0.39880E+01   0.74977E-01   0.24293E+02   0.30971E-05   0.44971E-03   0.30253E+00   0.88075E+01   0.35509E+01   0.60815E-01
   0.45273E-01   0.25926E-02   0.11007E+22   0.73198E-05   0.90438E+01   0.47966E+00   0.85473E-01   0.39826E+01   0.00000E+00   0.00000E+00   0.39826E+01   0.77153E-01   0.26307E+02   0.31086E-05   0.45107E-03   0.32008E+00   0.90569E+01   0.30360E+01   0.60522E-01
   0.46364E-01   0.28148E-02   0.10975E+22   0.72982E-05   0.85537E+01   0.35253E+00   0.31131E-01   0.39848E+01   0.00000E+00   0.00000E+00   0.39848E+01   0.72909E-01   0.25013E+02   0.31148E-05   0.45209E-03   0.30717E+00   0.85611E+01   0.23600E+01   0.60376E-01
   0.47509E-01   0.25926E-02   0.10940E+22   0.72753E-05   0.86623E+01   0.18831E+00  -0.79806E-01   0.39804E+01   0.00000E+00   0.00000E+00   0.39804E+01   0.73832E-01   0.31493E+02   0.31222E-05   0.45291E-03   0.30361E+00   0.86647E+01   0.12454E+01   0.60120E-01
   0.48545E-01   0.28148E-02   0.10903E+22   0.72508E-05   0.85533E+01   0.12556E+00   0.31656E-01   0.39825E+01   0.00000E+00   0.00000E+00   0.39825E+01   0.72871E-01   0.23732E+02   0.31390E-05   0.45547E-03   0.30146E+00   0.85543E+01   0.84104E+00   0.59950E-01
   0.49909E-01   0.26345E-02   0.10859E+22   0.72213E-05   0.86473E+01   0.59676E-01   0.18127E+00   0.39824E+01   0.00000E+00   0.00000E+00   0.39824E+01   0.73683E-01   0.34476E+02   0.31403E-05   0.45565E-03   0.29734E+00   0.86494E+01   0.39540E+00   0.59704E-01
   0.51545E-01   0.26998E-02   0.10750E+22   0.71486E-05   0.87707E+01   0.71924E-01   0.25883E+00   0.39855E+01   0.00000E+00   0.00000E+00   0.39855E+01   0.74722E-01   0.34776E+02   0.31748E-05   0.46084E-03   0.29660E+00   0.87748E+01   0.46984E+00   0.59150E-01
   0.52855E-01   0.27052E-02   0.10724E+22   0.71312E-05   0.86952E+01   0.11281E-01   0.82305E-01   0.39901E+01   0.00000E+00   0.00000E+00   0.39901E+01   0.74005E-01   0.21508E+02   0.31857E-05   0.46269E-03   0.30483E+00   0.86956E+01   0.74336E-01   0.59073E-01
   0.54055E-01   0.25926E-02   0.10686E+22   0.71064E-05   0.87979E+01  -0.19556E+00   0.23513E+00   0.39818E+01   0.00000E+00   0.00000E+00   0.39818E+01   0.74999E-01   0.28350E+02   0.31953E-05   0.46360E-03   0.29330E+00   0.88032E+01  -0.12733E+01   0.58746E-01
   0.55036E-01   0.28148E-02   0.10671E+22   0.70963E-05   0.86908E+01  -0.38553E-01   0.67237E-01   0.39827E+01   0.00000E+00   0.00000E+00   0.39827E+01   0.74036E-01   0.23314E+02   0.31997E-05   0.46429E-03   0.28855E+00   0.86912E+01  -0.25417E+00   0.58675E-01
   0.56127E-01   0.25926E-02   0.10589E+22   0.70418E-05   0.88230E+01   0.13379E+00   0.26205E+00   0.39860E+01   0.00000E+00   0.00000E+00   0.39860E+01   0.75170E-01   0.29487E+02   0.32281E-05   0.46860E-03   0.30256E+00   0.88279E+01   0.86873E+00   0.58272E-01
   0.57273E-01   0.28148E-02   0.10569E+22   0.70282E-05   0.87081E+01  -0.78972E-01   0.46927E+00   0.39800E+01   0.00000E+00   0.00000E+00   0.39800E+01   0.74316E-01   0.21833E+02   0.32320E-05   0.46882E-03   0.28659E+00   0.87211E+01  -0.51959E+00   0.58072E-01
   0.58364E-01   0.28148E-02   0.10516E+22   0.69933E-05   0.88220E+01  -0.11341E+00   0.39400E+00   0.39799E+01   0.00000E+00   0.00000E+00   0.39799E+01   0.75258E-01   0.23968E+02   0.32517E-05   0.47168E-03   0.29782E+00   0.88315E+01  -0.73652E+00   0.57783E-01
   0.59782E-01   0.25926E-02   0.10449E+22   0.69485E-05   0.90592E+01   0.29925E-01   0.27750E-01   0.39815E+01   0.00000E+00   0.00000E+00   0.39815E+01   0.77184E-01   0.36460E+02   0.32681E-05   0.47415E-03   0.29695E+00   0.90593E+01   0.18926E+00   0.57435E-01
   0.61418E-01   0.26345E-02   0.10411E+22   0.69236E-05   0.90781E+01  -0.76483E-01  -0.15301E+00   0.39728E+01   0.00000E+00   0.00000E+00   0.39728E+01   0.77442E-01   0.34213E+02   0.32838E-05   0.47591E-03   0.28706E+00   0.90797E+01  -0.48271E+00   0.57106E-01
   0.62673E-01   0.27680E-02   0.10352E+22   0.68838E-05   0.93075E+01  -0.26557E-01  -0.18171E+00   0.39746E+01   0.00000E+00   0.00000E+00   0.39746E+01   0.79382E-01   0.19917E+02   0.33096E-05   0.47975E-03   0.29291E+00   0.93093E+01  -0.16348E+00   0.56802E-01
   0.63764E-01   0.26777E-02   0.10281E+22   0.68370E-05   0.91497E+01   0.18408E+00  -0.22153E+00   0.39812E+01   0.00000E+00   0.00000E+00   0.39812E+01   0.77996E-01   0.26263E+02   0.33281E-05   0.48283E-03   0.28992E+00   0.91543E+01   0.11525E+01   0.56510E-01
   0.64909E-01   0.28148E-02   0.10242E+22   0.68111E-05   0.92640E+01  -0.15000E+00  -0.26170E+00   0.39819E+01   0.00000E+00   0.00000E+00   0.39819E+01   0.78966E-01   0.21966E+02   0.33291E-05   0.48302E-03   0.28775E+00   0.92689E+01  -0.92763E+00   0.56305E-01
   0.66055E-01   0.25926E-02   0.10207E+22   0.67877E-05   0.93305E+01  -0.91740E-01  -0.37384E+00   0.39742E+01   0.00000E+00   0.00000E+00   0.39742E+01   0.79635E-01   0.29382E+02   0.33644E-05   0.48767E-03   0.31328E+00   0.93385E+01  -0.56333E+00   0.56004E-01
   0.67364E-01   0.28773E-02   0.10139E+22   0.67425E-05   0.93014E+01  -0.20633E+00  -0.21024E+00   0.39791E+01   0.00000E+00   0.00000E+00   0.39791E+01   0.79310E-01   0.32398E+02   0.33696E-05   0.48872E-03   0.28856E+00   0.93061E+01  -0.12708E+01   0.55700E-01
   0.69000E-01   0.27680E-02   0.10080E+22   0.67033E-05   0.93709E+01   0.14840E-01  -0.16374E+00   0.39776E+01   0.00000E+00   0.00000E+00   0.39776E+01   0.79889E-01   0.30354E+02   0.33911E-05   0.49175E-03   0.29192E+00   0.93724E+01   0.90733E-01   0.55356E-01
   0.70364E-01   0.25926E-02   0.10006E+22   0.66540E-05   0.96319E+01  -0.22913E-01  -0.16032E+00   0.39827E+01   0.00000E+00   0.00000E+00   0.39827E+01   0.82061E-01   0.27686E+02   0.34080E-05   0.49452E-03   0.28511E+00   0.96333E+01  -0.13630E+00   0.55018E-01
   0.71455E-01   0.26189E-02   0.99587E+21   0.66225E-05   0.95989E+01   0.88387E-01  -0.11042E+00   0.39786E+01   0.00000E+00   0.00000E+00   0.39786E+01   0.81819E-01   0.28926E+02   0.34273E-05   0.49706E-03   0.27957E+00   0.95999E+01   0.52757E+00   0.54702E-01
   0.72818E-01   0.28773E-02   0.99079E+21   0.65888E-05   0.94698E+01   0.34820E-01  -0.11654E-03   0.39779E+01   0.00000E+00   0.00000E+00   0.39779E+01   0.80718E-01   0.31750E+02   0.34474E-05   0.49994E-03   0.28616E+00   0.94699E+01   0.21067E+00   0.54413E-01
   0.74509E-01   0.27680E-02   0.98311E+21   0.65377E-05   0.95485E+01  -0.65395E-01   0.56994E-01   0.39847E+01   0.00000E+00   0.00000E+00   0.39847E+01   0.81321E-01   0.29823E+02   0.34711E-05   0.50380E-03   0.28127E+00   0.95489E+01  -0.39240E+00   0.54084E-01
   0.75873E-01   0.26345E-02   0.98308E+21   0.65375E-05   0.94778E+01   0.31064E-01  -0.46668E-01   0.39676E+01   0.00000E+00   0.00000E+00   0.39676E+01   0.80891E-01   0.25946E+02   0.34838E-05   0.50455E-03   0.28792E+00   0.94779E+01   0.18779E+00   0.53850E-01
   0.76964E-01   0.28148E-02   0.97542E+21   0.64866E-05   0.96015E+01   0.18467E+00  -0.24814E+00   0.39719E+01   0.00000E+00   0.00000E+00   0.39719E+01   0.81944E-01   0.22009E+02   0.35096E-05   0.50857E-03   0.28649E+00   0.96065E+01   0.11019E+01   0.53489E-01
   0.78273E-01   0.26345E-02   0.97045E+21   0.64535E-05   0.96236E+01   0.39023E-01   0.11037E-01   0.39709E+01   0.00000E+00   0.00000E+00   0.39709E+01   0.82101E-01   0.31032E+02   0.35336E-05   0.51198E-03   0.29396E+00   0.96236E+01   0.23233E+00   0.53202E-01
   0.79909E-01   0.26345E-02   0.96156E+21   0.63944E-05   0.98047E+01  -0.20687E+00   0.12950E+00   0.39812E+01   0.00000E+00   0.00000E+00   0.39812E+01   0.83563E-01   0.31734E+02   0.35521E-05   0.51533E-03   0.28442E+00   0.98077E+01  -0.12087E+01   0.52851E-01
   0.81327E-01   0.27052E-02   0.95512E+21   0.63515E-05   0.99401E+01  -0.36387E+00   0.17932E+00   0.39809E+01   0.00000E+00   0.00000E+00   0.39809E+01   0.84765E-01   0.20397E+02   0.35842E-05   0.51996E-03   0.28486E+00   0.99484E+01  -0.20964E+01   0.52493E-01
   0.82309E-01   0.26998E-02   0.94781E+21   0.63029E-05   0.10177E+02  -0.95390E+00   0.62787E-01   0.39937E+01   0.00000E+00   0.00000E+00   0.39937E+01   0.86957E-01   0.26385E+02   0.35930E-05   0.52208E-03   0.27678E+00   0.10222E+02  -0.53546E+01   0.52259E-01
   0.83782E-01   0.28311E-02   0.94210E+21   0.62649E-05   0.10632E+02  -0.20523E+01   0.12023E+00   0.39942E+01   0.00000E+00   0.00000E+00   0.39942E+01   0.92113E-01   0.32873E+02   0.36272E-05   0.52708E-03   0.27601E+00   0.10829E+02  -0.10926E+02   0.51951E-01
   0.85418E-01   0.25522E-02   0.92323E+21   0.61394E-05   0.13541E+02  -0.58037E+01  -0.55324E-01   0.40044E+01   0.00000E+00   0.00000E+00   0.40044E+01   0.12516E+00   0.35173E+02   0.37002E-05   0.53837E-03   0.28120E+00   0.14733E+02  -0.23200E+02   0.51040E-01
   0.87436E-01   0.28148E-02   0.89978E+21   0.59835E-05   0.11973E+02  -0.10308E+02   0.91655E-02   0.40234E+01   0.00000E+00   0.00000E+00   0.40234E+01   0.13390E+00   0.35882E+02   0.39272E-05   0.57276E-03   0.26442E+00   0.15799E+02  -0.40724E+02   0.49980E-01