VARIABLES = "X","Y","ND","D","U","V","W","TTR","TRT","TVB","TOV","MA","MC","MCT","MFP","SOF","FSP","ANG","P"
 ZONE I=       12807  F=POINT
   0.15043E-01   0.26820E-03   0.35221E+23   0.23422E-03   0.36621E+02   0.12663E+00  -0.81986E+00   0.36684E+01   0.00000E+00   0.00000E+00   0.36684E+01   0.32513E+00   0.31236E+02   0.10160E-06   0.14149E-04   0.10260E+01   0.36630E+02   0.19813E+00   0.17838E+01
   0.15387E-01   0.26820E-03   0.35182E+23   0.23396E-03   0.41879E+02  -0.79713E+00  -0.62149E-01   0.35990E+01   0.00000E+00   0.00000E+00   0.35990E+01   0.37535E+00   0.46924E+02   0.10300E-06   0.14208E-04   0.10425E+01   0.41886E+02  -0.10904E+01   0.17481E+01
   0.15258E-01   0.13410E-03   0.34451E+23   0.22910E-03   0.41464E+02  -0.83093E+00   0.18975E+00   0.36112E+01   0.00000E+00   0.00000E+00   0.36112E+01   0.37102E+00   0.15135E+02   0.10176E-06   0.14061E-04   0.10677E+01   0.41473E+02  -0.11480E+01   0.17176E+01
   0.15172E-01   0.38953E-03   0.35642E+23   0.23702E-03   0.39921E+02  -0.63970E-01   0.28939E+00   0.36154E+01   0.00000E+00   0.00000E+00   0.36154E+01   0.35694E+00   0.15906E+02   0.10109E-06   0.13976E-04   0.10483E+01   0.39922E+02  -0.91811E-01   0.17790E+01
   0.15043E-01   0.38953E-03   0.35478E+23   0.23593E-03   0.37812E+02  -0.17053E+00   0.23125E-01   0.36767E+01   0.00000E+00   0.00000E+00   0.36767E+01   0.33524E+00   0.23754E+02   0.10122E-06   0.14113E-04   0.10219E+01   0.37813E+02  -0.25840E+00   0.18009E+01
   0.15043E-01   0.47544E-03   0.36001E+23   0.23941E-03   0.37212E+02  -0.67170E+00   0.42055E+00   0.36742E+01   0.00000E+00   0.00000E+00   0.36742E+01   0.33011E+00   0.24137E+02   0.99874E-07   0.13920E-04   0.10305E+01   0.37221E+02  -0.10341E+01   0.18262E+01
   0.15258E-01   0.30378E-03   0.35140E+23   0.23368E-03   0.40991E+02  -0.87270E+00   0.51659E+00   0.36194E+01   0.00000E+00   0.00000E+00   0.36194E+01   0.36640E+00   0.15645E+02   0.10204E-06   0.14115E-04   0.10495E+01   0.41004E+02  -0.12196E+01   0.17559E+01
   0.15172E-01   0.11494E-03   0.33975E+23   0.22594E-03   0.41620E+02   0.29661E+00  -0.46256E+00   0.36471E+01   0.00000E+00   0.00000E+00   0.36471E+01   0.37052E+00   0.28061E+02   0.95495E-07   0.13260E-04   0.11679E+01   0.41623E+02   0.40832E+00   0.17107E+01
   0.15301E-01   0.57471E-04   0.33065E+23   0.21988E-03   0.41711E+02  -0.48094E+00   0.90348E+00   0.36327E+01   0.00000E+00   0.00000E+00   0.36327E+01   0.37215E+00   0.25975E+02   0.88976E-07   0.12331E-04   0.12924E+01   0.41723E+02  -0.66062E+00   0.16583E+01
   0.15043E-01   0.11494E-03   0.34249E+23   0.22776E-03   0.39462E+02   0.41240E+00   0.12860E+00   0.36271E+01   0.00000E+00   0.00000E+00   0.36271E+01   0.35227E+00   0.42527E+02   0.94510E-07   0.13087E-04   0.11585E+01   0.39464E+02   0.59876E+00   0.17151E+01
   0.15387E-01   0.13410E-03   0.34292E+23   0.22804E-03   0.41689E+02  -0.35271E-01   0.20728E+00   0.36015E+01   0.00000E+00   0.00000E+00   0.36015E+01   0.37345E+00   0.30115E+02   0.10293E-06   0.14203E-04   0.10578E+01   0.41689E+02  -0.48476E-01   0.17051E+01
   0.15301E-01   0.47544E-03   0.35589E+23   0.23666E-03   0.39374E+02  -0.69728E+00  -0.82651E-01   0.36735E+01   0.00000E+00   0.00000E+00   0.36735E+01   0.34930E+00   0.31824E+02   0.10091E-06   0.14062E-04   0.10407E+01   0.39380E+02  -0.10146E+01   0.18049E+01
   0.15172E-01   0.47544E-03   0.35813E+23   0.23816E-03   0.39811E+02  -0.88314E-02  -0.57667E+00   0.36517E+01   0.00000E+00   0.00000E+00   0.36517E+01   0.35420E+00   0.16011E+02   0.10094E-06   0.14025E-04   0.10408E+01   0.39815E+02  -0.12710E-01   0.18055E+01
   0.15129E-01   0.30378E-03   0.35056E+23   0.23312E-03   0.40767E+02   0.45501E-01  -0.26770E+00   0.36688E+01   0.00000E+00   0.00000E+00   0.36688E+01   0.36183E+00   0.31217E+02   0.10212E-06   0.14222E-04   0.10376E+01   0.40768E+02   0.63949E-01   0.17756E+01
   0.15215E-01   0.21839E-03   0.34732E+23   0.23097E-03   0.40794E+02  -0.21316E+00  -0.17682E+00   0.36588E+01   0.00000E+00   0.00000E+00   0.36588E+01   0.36256E+00   0.30799E+02   0.10259E-06   0.14268E-04   0.10428E+01   0.40795E+02  -0.29939E+00   0.17545E+01
   0.15301E-01   0.38953E-03   0.35606E+23   0.23678E-03   0.39878E+02  -0.96306E+00   0.38072E+00   0.36337E+01   0.00000E+00   0.00000E+00   0.36337E+01   0.35576E+00   0.31786E+02   0.10090E-06   0.13985E-04   0.10464E+01   0.39892E+02  -0.13834E+01   0.17863E+01
   0.15688E-01   0.30378E-03   0.34833E+23   0.23164E-03   0.42832E+02  -0.45136E-01  -0.46062E+00   0.36167E+01   0.00000E+00   0.00000E+00   0.36167E+01   0.38291E+00   0.15523E+02   0.10370E-06   0.14339E-04   0.10323E+01   0.42835E+02  -0.60377E-01   0.17393E+01
   0.15645E-01   0.13410E-03   0.34125E+23   0.22693E-03   0.43382E+02  -0.32609E+00   0.21122E+00   0.35970E+01   0.00000E+00   0.00000E+00   0.35970E+01   0.38887E+00   0.29945E+02   0.10333E-06   0.14249E-04   0.10573E+01   0.43384E+02  -0.43066E+00   0.16947E+01
   0.15860E-01   0.13410E-03   0.33885E+23   0.22533E-03   0.44426E+02   0.43956E-01  -0.35957E-01   0.35920E+01   0.00000E+00   0.00000E+00   0.35920E+01   0.39849E+00   0.14872E+02   0.10400E-06   0.14331E-04   0.10526E+01   0.44426E+02   0.56690E-01   0.16804E+01
   0.15860E-01   0.30378E-03   0.34918E+23   0.23220E-03   0.43157E+02  -0.39204E+00  -0.31512E+00   0.36157E+01   0.00000E+00   0.00000E+00   0.36157E+01   0.38587E+00   0.15546E+02   0.10349E-06   0.14309E-04   0.10330E+01   0.43160E+02  -0.52046E+00   0.17430E+01
   0.15473E-01   0.57471E-04   0.32946E+23   0.21909E-03   0.41984E+02  -0.17632E+00   0.24172E+00   0.36047E+01   0.00000E+00   0.00000E+00   0.36047E+01   0.37593E+00   0.25969E+02   0.90309E-07   0.12467E-04   0.12692E+01   0.41985E+02  -0.24063E+00   0.16396E+01
   0.15516E-01   0.18678E-03   0.34480E+23   0.22929E-03   0.43085E+02  -0.50306E+00   0.58038E+00   0.36042E+01   0.00000E+00   0.00000E+00   0.36042E+01   0.38587E+00   0.60896E+02   0.10366E-06   0.14309E-04   0.10417E+01   0.43092E+02  -0.66895E+00   0.17157E+01
   0.15473E-01   0.38953E-03   0.35090E+23   0.23335E-03   0.40898E+02  -0.63726E+00   0.10038E+01   0.36334E+01   0.00000E+00   0.00000E+00   0.36334E+01   0.36491E+00   0.31318E+02   0.10227E-06   0.14174E-04   0.10439E+01   0.40916E+02  -0.89269E+00   0.17602E+01
   0.15731E-01   0.57471E-04   0.33305E+23   0.22148E-03   0.43831E+02  -0.21216E+00  -0.99817E+00   0.35902E+01   0.00000E+00   0.00000E+00   0.35902E+01   0.39336E+00   0.26342E+02   0.88916E-07   0.12250E-04   0.12918E+01   0.43842E+02  -0.27734E+00   0.16508E+01
   0.15516E-01   0.47544E-03   0.35470E+23   0.23587E-03   0.39589E+02  -0.69650E+00   0.58152E+00   0.36553E+01   0.00000E+00   0.00000E+00   0.36553E+01   0.35212E+00   0.47574E+02   0.10131E-06   0.14084E-04   0.10454E+01   0.39600E+02  -0.10079E+01   0.17900E+01
   0.15645E-01   0.38953E-03   0.35182E+23   0.23396E-03   0.41613E+02  -0.50706E+00   0.30348E+00   0.36560E+01   0.00000E+00   0.00000E+00   0.36560E+01   0.37002E+00   0.31417E+02   0.10256E-06   0.14259E-04   0.10342E+01   0.41617E+02  -0.69813E+00   0.17758E+01
   0.15602E-01   0.57471E-04   0.33184E+23   0.22068E-03   0.41760E+02   0.26686E+00   0.14244E+00   0.35803E+01   0.00000E+00   0.00000E+00   0.35803E+01   0.37520E+00   0.13127E+02   0.89908E-07   0.12369E-04   0.12840E+01   0.41761E+02   0.36614E+00   0.16403E+01
   0.15860E-01   0.38953E-03   0.35091E+23   0.23336E-03   0.42453E+02  -0.85965E+00  -0.26793E+00   0.36194E+01   0.00000E+00   0.00000E+00   0.36194E+01   0.37944E+00   0.47005E+02   0.10294E-06   0.14239E-04   0.10349E+01   0.42462E+02  -0.11601E+01   0.17535E+01
   0.15774E-01   0.13410E-03   0.34043E+23   0.22639E-03   0.44436E+02  -0.42756E+00  -0.15084E+00   0.35939E+01   0.00000E+00   0.00000E+00   0.35939E+01   0.39850E+00   0.14922E+02   0.10333E-06   0.14243E-04   0.10581E+01   0.44438E+02  -0.55129E+00   0.16891E+01
   0.15903E-01   0.21839E-03   0.34397E+23   0.22874E-03   0.43782E+02  -0.45696E+00  -0.10019E+01   0.36243E+01   0.00000E+00   0.00000E+00   0.36243E+01   0.39109E+00   0.30498E+02   0.10420E-06   0.14423E-04   0.10330E+01   0.43796E+02  -0.59799E+00   0.17211E+01
   0.15731E-01   0.47544E-03   0.35394E+23   0.23537E-03   0.40827E+02  -0.91822E+00   0.84159E+00   0.36348E+01   0.00000E+00   0.00000E+00   0.36348E+01   0.36422E+00   0.31652E+02   0.10184E-06   0.14117E-04   0.10391E+01   0.40846E+02  -0.12884E+01   0.17762E+01
   0.15688E-01   0.21839E-03   0.34616E+23   0.23019E-03   0.43153E+02  -0.55650E+00   0.61170E+00   0.36106E+01   0.00000E+00   0.00000E+00   0.36106E+01   0.38615E+00   0.15346E+02   0.10296E-06   0.14226E-04   0.10425E+01   0.43161E+02  -0.73884E+00   0.17255E+01
   0.15774E-01   0.21839E-03   0.34831E+23   0.23163E-03   0.42572E+02  -0.11596E+01  -0.81321E+00   0.35933E+01   0.00000E+00   0.00000E+00   0.35933E+01   0.38201E+00   0.15445E+02   0.10342E-06   0.14255E-04   0.10380E+01   0.42596E+02  -0.15603E+01   0.17280E+01
   0.15774E-01   0.30378E-03   0.34976E+23   0.23259E-03   0.42798E+02  -0.83879E+00  -0.56668E+00   0.36102E+01   0.00000E+00   0.00000E+00   0.36102E+01   0.38303E+00   0.15572E+02   0.10255E-06   0.14168E-04   0.10441E+01   0.42810E+02  -0.11228E+01   0.17433E+01
   0.15903E-01   0.47544E-03   0.35431E+23   0.23561E-03   0.41780E+02  -0.10129E+01   0.46325E+00   0.36240E+01   0.00000E+00   0.00000E+00   0.36240E+01   0.37324E+00   0.31668E+02   0.10202E-06   0.14121E-04   0.10415E+01   0.41795E+02  -0.13888E+01   0.17727E+01
   0.15559E-01   0.30378E-03   0.34762E+23   0.23117E-03   0.42769E+02  -0.57861E+00  -0.20956E+00   0.36204E+01   0.00000E+00   0.00000E+00   0.36204E+01   0.38216E+00   0.30966E+02   0.10294E-06   0.14242E-04   0.10346E+01   0.42773E+02  -0.77510E+00   0.17375E+01
   0.15946E-01   0.57471E-04   0.33318E+23   0.22156E-03   0.45246E+02  -0.58581E-01   0.25452E+00   0.35374E+01   0.00000E+00   0.00000E+00   0.35374E+01   0.40898E+00   0.13128E+02   0.90222E-07   0.12338E-04   0.12871E+01   0.45247E+02  -0.74182E-01   0.16271E+01
   0.15860E-01   0.57471E-04   0.33113E+23   0.22020E-03   0.44550E+02   0.14382E+00  -0.71785E+00   0.35317E+01   0.00000E+00   0.00000E+00   0.35317E+01   0.40306E+00   0.13061E+02   0.89761E-07   0.12265E-04   0.12927E+01   0.44556E+02   0.18496E+00   0.16145E+01
   0.16246E-01   0.21839E-03   0.34255E+23   0.22780E-03   0.45372E+02  -0.65628E+00  -0.11998E+01   0.35951E+01   0.00000E+00   0.00000E+00   0.35951E+01   0.40699E+00   0.30382E+02   0.10497E-06   0.14472E-04   0.10337E+01   0.45392E+02  -0.82870E+00   0.17002E+01
   0.16117E-01   0.30378E-03   0.34656E+23   0.23046E-03   0.44269E+02  -0.19104E+01  -0.19344E+01   0.36163E+01   0.00000E+00   0.00000E+00   0.36163E+01   0.39649E+00   0.15434E+02   0.10445E-06   0.14442E-04   0.10288E+01   0.44352E+02  -0.24711E+01   0.17303E+01
   0.16117E-01   0.13410E-03   0.33694E+23   0.22406E-03   0.44982E+02   0.15461E+00  -0.50543E+00   0.35729E+01   0.00000E+00   0.00000E+00   0.35729E+01   0.40459E+00   0.14791E+02   0.10443E-06   0.14352E-04   0.10564E+01   0.44986E+02   0.19693E+00   0.16620E+01
   0.16375E-01   0.38953E-03   0.34687E+23   0.23067E-03   0.44893E+02  -0.60814E+00  -0.96443E+00   0.36287E+01   0.00000E+00   0.00000E+00   0.36287E+01   0.40077E+00   0.15477E+02   0.10384E-06   0.14382E-04   0.10314E+01   0.44907E+02  -0.77611E+00   0.17377E+01
   0.16203E-01   0.38953E-03   0.34619E+23   0.23022E-03   0.44071E+02  -0.13937E+01  -0.62096E+00   0.36371E+01   0.00000E+00   0.00000E+00   0.36371E+01   0.39309E+00   0.15451E+02   0.10429E-06   0.14462E-04   0.10249E+01   0.44098E+02  -0.18114E+01   0.17384E+01
   0.16289E-01   0.30378E-03   0.34370E+23   0.22856E-03   0.45611E+02  -0.84057E+00  -0.10051E+01   0.36192E+01   0.00000E+00   0.00000E+00   0.36192E+01   0.40776E+00   0.45925E+02   0.10483E-06   0.14501E-04   0.10253E+01   0.45630E+02  -0.10558E+01   0.17173E+01
   0.16289E-01   0.38953E-03   0.34721E+23   0.23090E-03   0.44329E+02  -0.72573E+00  -0.83094E+00   0.36221E+01   0.00000E+00   0.00000E+00   0.36221E+01   0.39609E+00   0.15502E+02   0.10374E-06   0.14356E-04   0.10320E+01   0.44342E+02  -0.93793E+00   0.17363E+01
   0.15989E-01   0.30378E-03   0.34759E+23   0.23115E-03   0.43117E+02  -0.52203E+00  -0.95660E+00   0.36254E+01   0.00000E+00   0.00000E+00   0.36254E+01   0.38509E+00   0.30951E+02   0.10321E-06   0.14288E-04   0.10361E+01   0.43130E+02  -0.69366E+00   0.17397E+01
   0.16074E-01   0.57471E-04   0.32716E+23   0.21756E-03   0.45913E+02  -0.30317E+00   0.93078E+00   0.35689E+01   0.00000E+00   0.00000E+00   0.35689E+01   0.41325E+00   0.25782E+02   0.90725E-07   0.12462E-04   0.12816E+01   0.45923E+02  -0.37833E+00   0.16120E+01
   0.16203E-01   0.47544E-03   0.35180E+23   0.23394E-03   0.43840E+02  -0.13885E+01  -0.72238E+00   0.36183E+01   0.00000E+00   0.00000E+00   0.36183E+01   0.39206E+00   0.15723E+02   0.10217E-06   0.14130E-04   0.10414E+01   0.43868E+02  -0.18140E+01   0.17573E+01
   0.16375E-01   0.21839E-03   0.33912E+23   0.22552E-03   0.46470E+02  -0.70402E+00  -0.11816E+01   0.36211E+01   0.00000E+00   0.00000E+00   0.36211E+01   0.41533E+00   0.15045E+02   0.10561E-06   0.14612E-04   0.10261E+01   0.46490E+02  -0.86797E+00   0.16954E+01
   0.16461E-01   0.18678E-03   0.33744E+23   0.22440E-03   0.47382E+02  -0.70866E+00  -0.12063E+01   0.35837E+01   0.00000E+00   0.00000E+00   0.35837E+01   0.42569E+00   0.29710E+02   0.10547E-06   0.14517E-04   0.10404E+01   0.47403E+02  -0.85688E+00   0.16695E+01
   0.16289E-01   0.13410E-03   0.33767E+23   0.22455E-03   0.46256E+02  -0.55741E+00  -0.14550E+01   0.35695E+01   0.00000E+00   0.00000E+00   0.35695E+01   0.41645E+00   0.44489E+02   0.10444E-06   0.14348E-04   0.10530E+01   0.46282E+02  -0.69041E+00   0.16641E+01
   0.16461E-01   0.30378E-03   0.34297E+23   0.22808E-03   0.46786E+02  -0.76250E+00  -0.13137E+01   0.35910E+01   0.00000E+00   0.00000E+00   0.35910E+01   0.41995E+00   0.15268E+02   0.10485E-06   0.14446E-04   0.10319E+01   0.46811E+02  -0.93370E+00   0.17004E+01
   0.16332E-01   0.57471E-04   0.33208E+23   0.22084E-03   0.46605E+02   0.22173E+00   0.19338E+00   0.35456E+01   0.00000E+00   0.00000E+00   0.35456E+01   0.42078E+00   0.26262E+02   0.89263E-07   0.12221E-04   0.12942E+01   0.46606E+02   0.27258E+00   0.16256E+01
   0.16074E-01   0.38953E-03   0.34798E+23   0.23141E-03   0.43290E+02  -0.11532E+01  -0.16097E+00   0.36378E+01   0.00000E+00   0.00000E+00   0.36378E+01   0.38599E+00   0.31070E+02   0.10337E-06   0.14335E-04   0.10346E+01   0.43305E+02  -0.15260E+01   0.17477E+01
   0.16074E-01   0.21839E-03   0.34481E+23   0.22930E-03   0.44308E+02  -0.45552E+00  -0.43443E+00   0.36060E+01   0.00000E+00   0.00000E+00   0.36060E+01   0.39670E+00   0.30589E+02   0.10428E-06   0.14398E-04   0.10320E+01   0.44312E+02  -0.58903E+00   0.17166E+01
   0.15989E-01   0.13410E-03   0.34010E+23   0.22617E-03   0.44816E+02  -0.26659E+00   0.18057E+00   0.35865E+01   0.00000E+00   0.00000E+00   0.35865E+01   0.40231E+00   0.29844E+02   0.10389E-06   0.14305E-04   0.10541E+01   0.44817E+02  -0.34082E+00   0.16840E+01
   0.16332E-01   0.47544E-03   0.35277E+23   0.23460E-03   0.44037E+02  -0.10370E+01  -0.75013E+00   0.36005E+01   0.00000E+00   0.00000E+00   0.36005E+01   0.39471E+00   0.31532E+02   0.10321E-06   0.14239E-04   0.10316E+01   0.44056E+02  -0.13490E+01   0.17536E+01
   0.16074E-01   0.47544E-03   0.35275E+23   0.23458E-03   0.43082E+02  -0.14210E+01  -0.94858E-01   0.36260E+01   0.00000E+00   0.00000E+00   0.36260E+01   0.38483E+00   0.31529E+02   0.10241E-06   0.14180E-04   0.10353E+01   0.43106E+02  -0.18891E+01   0.17659E+01
   0.16203E-01   0.57471E-04   0.33110E+23   0.22018E-03   0.45443E+02  -0.41896E+00   0.45096E+00   0.35457E+01   0.00000E+00   0.00000E+00   0.35457E+01   0.41030E+00   0.13149E+02   0.89324E-07   0.12230E-04   0.12931E+01   0.45447E+02  -0.52823E+00   0.16208E+01
   0.16762E-01   0.21839E-03   0.34034E+23   0.22633E-03   0.48461E+02  -0.24582E+00  -0.15080E+01   0.35662E+01   0.00000E+00   0.00000E+00   0.35662E+01   0.43647E+00   0.30191E+02   0.10606E-06   0.14563E-04   0.10298E+01   0.48485E+02  -0.29063E+00   0.16757E+01
   0.16848E-01   0.38953E-03   0.34953E+23   0.23244E-03   0.47414E+02  -0.59062E+00  -0.15066E+01   0.35422E+01   0.00000E+00   0.00000E+00   0.35422E+01   0.42853E+00   0.31202E+02   0.10479E-06   0.14341E-04   0.10289E+01   0.47442E+02  -0.71367E+00   0.17093E+01
   0.16934E-01   0.13410E-03   0.33697E+23   0.22408E-03   0.48391E+02  -0.13111E+00  -0.21792E+01   0.35434E+01   0.00000E+00   0.00000E+00   0.35434E+01   0.43747E+00   0.29601E+02   0.10507E-06   0.14380E-04   0.10508E+01   0.48440E+02  -0.15523E+00   0.16484E+01
   0.16676E-01   0.38953E-03   0.34769E+23   0.23122E-03   0.46485E+02  -0.84255E+00  -0.16235E+01   0.35606E+01   0.00000E+00   0.00000E+00   0.35606E+01   0.41912E+00   0.31045E+02   0.10491E-06   0.14394E-04   0.10268E+01   0.46521E+02  -0.10384E+01   0.17092E+01
   0.17020E-01   0.57471E-04   0.33363E+23   0.22187E-03   0.48298E+02   0.13361E+00  -0.78930E+00   0.34807E+01   0.00000E+00   0.00000E+00   0.34807E+01   0.44015E+00   0.26326E+02   0.90317E-07   0.12252E-04   0.12920E+01   0.48304E+02   0.15850E+00   0.16033E+01
   0.16977E-01   0.21839E-03   0.34053E+23   0.22646E-03   0.48630E+02  -0.78048E+00  -0.51563E+00   0.35879E+01   0.00000E+00   0.00000E+00   0.35879E+01   0.43653E+00   0.15127E+02   0.10559E-06   0.14542E-04   0.10268E+01   0.48639E+02  -0.91949E+00   0.16868E+01
   0.16891E-01   0.30378E-03   0.34351E+23   0.22843E-03   0.48181E+02  -0.28041E+00  -0.14955E+01   0.35625E+01   0.00000E+00   0.00000E+00   0.35625E+01   0.43417E+00   0.45879E+02   0.10572E-06   0.14509E-04   0.10277E+01   0.48205E+02  -0.33346E+00   0.16895E+01
   0.16719E-01   0.30378E-03   0.34563E+23   0.22985E-03   0.48273E+02  -0.21293E+00  -0.91723E+00   0.35508E+01   0.00000E+00   0.00000E+00   0.35508E+01   0.43559E+00   0.15393E+02   0.10502E-06   0.14389E-04   0.10344E+01   0.48282E+02  -0.25272E+00   0.16944E+01
   0.16547E-01   0.47544E-03   0.35294E+23   0.23470E-03   0.45440E+02  -0.13934E+01  -0.94546E+00   0.35720E+01   0.00000E+00   0.00000E+00   0.35720E+01   0.40901E+00   0.47330E+02   0.10321E-06   0.14184E-04   0.10366E+01   0.45472E+02  -0.17564E+01   0.17405E+01
   0.16676E-01   0.13410E-03   0.33425E+23   0.22228E-03   0.47878E+02   0.16417E+00  -0.22649E+01   0.35600E+01   0.00000E+00   0.00000E+00   0.35600E+01   0.43186E+00   0.29301E+02   0.10580E-06   0.14515E-04   0.10473E+01   0.47931E+02   0.19646E+00   0.16428E+01
   0.16977E-01   0.43678E-03   0.34739E+23   0.23101E-03   0.48568E+02  -0.12216E+01  -0.11716E+01   0.35661E+01   0.00000E+00   0.00000E+00   0.35661E+01   0.43749E+00   0.31042E+02   0.10498E-06   0.14415E-04   0.10260E+01   0.48597E+02  -0.14408E+01   0.17103E+01
   0.16805E-01   0.13410E-03   0.33489E+23   0.22270E-03   0.48202E+02  -0.44799E+00  -0.15911E+01   0.35481E+01   0.00000E+00   0.00000E+00   0.35481E+01   0.43528E+00   0.14698E+02   0.10526E-06   0.14416E-04   0.10498E+01   0.48230E+02  -0.53250E+00   0.16405E+01
   0.16547E-01   0.57471E-04   0.32697E+23   0.21744E-03   0.48383E+02   0.14044E+00  -0.13149E+01   0.34990E+01   0.00000E+00   0.00000E+00   0.34990E+01   0.43988E+00   0.38888E+02   0.91428E-07   0.12435E-04   0.12837E+01   0.48401E+02   0.16631E+00   0.15795E+01
   0.16805E-01   0.52203E-03   0.35009E+23   0.23281E-03   0.47420E+02  -0.89050E+00  -0.91022E+00   0.35786E+01   0.00000E+00   0.00000E+00   0.35786E+01   0.42630E+00   0.62590E+02   0.10396E-06   0.14299E-04   0.10319E+01   0.47437E+02  -0.10758E+01   0.17296E+01
   0.16590E-01   0.18678E-03   0.33854E+23   0.22513E-03   0.48216E+02   0.16898E-01  -0.11802E+01   0.35694E+01   0.00000E+00   0.00000E+00   0.35694E+01   0.43398E+00   0.44860E+02   0.10604E-06   0.14567E-04   0.10336E+01   0.48230E+02   0.20080E-01   0.16683E+01
   0.16891E-01   0.21839E-03   0.33999E+23   0.22609E-03   0.49219E+02  -0.51780E+00  -0.11472E+01   0.35732E+01   0.00000E+00   0.00000E+00   0.35732E+01   0.44279E+00   0.15073E+02   0.10551E-06   0.14502E-04   0.10356E+01   0.49235E+02  -0.60276E+00   0.16772E+01
   0.16547E-01   0.30378E-03   0.34491E+23   0.22937E-03   0.46949E+02  -0.72968E+00  -0.16843E+01   0.35930E+01   0.00000E+00   0.00000E+00   0.35930E+01   0.42139E+00   0.15347E+02   0.10520E-06   0.14499E-04   0.10282E+01   0.46985E+02  -0.89042E+00   0.17109E+01
   0.16633E-01   0.30378E-03   0.34436E+23   0.22900E-03   0.47930E+02  -0.53108E+00  -0.12771E+01   0.35544E+01   0.00000E+00   0.00000E+00   0.35544E+01   0.43237E+00   0.15335E+02   0.10566E-06   0.14484E-04   0.10266E+01   0.47950E+02  -0.63483E+00   0.16898E+01
   0.16762E-01   0.57471E-04   0.32453E+23   0.21581E-03   0.47484E+02  -0.81072E-01  -0.21039E+01   0.35351E+01   0.00000E+00   0.00000E+00   0.35351E+01   0.42976E+00   0.25644E+02   0.92133E-07   0.12595E-04   0.12694E+01   0.47531E+02  -0.97824E-01   0.15839E+01
   0.16504E-01   0.38953E-03   0.34746E+23   0.23106E-03   0.45287E+02  -0.12307E+01  -0.10247E+01   0.36017E+01   0.00000E+00   0.00000E+00   0.36017E+01   0.40593E+00   0.31017E+02   0.10441E-06   0.14407E-04   0.10280E+01   0.45316E+02  -0.15567E+01   0.17278E+01
   0.16891E-01   0.57471E-04   0.32515E+23   0.21622E-03   0.49096E+02  -0.20486E+00  -0.12522E+01   0.35333E+01   0.00000E+00   0.00000E+00   0.35333E+01   0.44418E+00   0.12868E+02   0.91939E-07   0.12566E-04   0.12760E+01   0.49113E+02  -0.23907E+00   0.15861E+01
   0.17364E-01   0.18678E-03   0.33766E+23   0.22454E-03   0.51050E+02  -0.46194E+00  -0.33983E+00   0.35085E+01   0.00000E+00   0.00000E+00   0.35085E+01   0.46336E+00   0.74706E+02   0.10718E-06   0.14597E-04   0.10299E+01   0.51054E+02  -0.51843E+00   0.16356E+01
   0.17149E-01   0.38953E-03   0.34874E+23   0.23191E-03   0.48957E+02  -0.10462E+01  -0.55226E+00   0.35183E+01   0.00000E+00   0.00000E+00   0.35183E+01   0.44384E+00   0.15573E+02   0.10536E-06   0.14370E-04   0.10297E+01   0.48971E+02  -0.12242E+01   0.16940E+01
   0.17106E-01   0.21839E-03   0.34022E+23   0.22625E-03   0.49210E+02  -0.76438E-01  -0.13156E+01   0.35601E+01   0.00000E+00   0.00000E+00   0.35601E+01   0.44354E+00   0.30189E+02   0.10639E-06   0.14596E-04   0.10257E+01   0.49227E+02  -0.88998E-01   0.16722E+01
   0.17407E-01   0.35201E-03   0.34059E+23   0.22649E-03   0.50222E+02  -0.67314E+00   0.27424E+00   0.35491E+01   0.00000E+00   0.00000E+00   0.35491E+01   0.45324E+00   0.30386E+02   0.10684E-06   0.14635E-04   0.10221E+01   0.50227E+02  -0.76791E+00   0.16689E+01
   0.17149E-01   0.13410E-03   0.33690E+23   0.22404E-03   0.49715E+02  -0.12444E+00  -0.14619E+01   0.35135E+01   0.00000E+00   0.00000E+00   0.35135E+01   0.45109E+00   0.44372E+02   0.10561E-06   0.14393E-04   0.10505E+01   0.49737E+02  -0.14342E+00   0.16342E+01
   0.17192E-01   0.57471E-04   0.33330E+23   0.22165E-03   0.50365E+02   0.97510E-01  -0.10770E+01   0.34488E+01   0.00000E+00   0.00000E+00   0.34488E+01   0.46115E+00   0.26483E+02   0.90249E-07   0.12186E-04   0.12942E+01   0.50376E+02   0.11093E+00   0.15870E+01
   0.17106E-01   0.30378E-03   0.34206E+23   0.22747E-03   0.49266E+02  -0.84614E+00  -0.16915E+01   0.35667E+01   0.00000E+00   0.00000E+00   0.35667E+01   0.44381E+00   0.30464E+02   0.10603E-06   0.14560E-04   0.10248E+01   0.49303E+02  -0.98395E+00   0.16844E+01
   0.17106E-01   0.47544E-03   0.34724E+23   0.23092E-03   0.48622E+02  -0.84727E+00  -0.63584E+00   0.35641E+01   0.00000E+00   0.00000E+00   0.35641E+01   0.43794E+00   0.31051E+02   0.10503E-06   0.14418E-04   0.10259E+01   0.48634E+02  -0.99831E+00   0.17087E+01
   0.17063E-01   0.38953E-03   0.34947E+23   0.23240E-03   0.48963E+02  -0.12071E+01  -0.14871E+01   0.35385E+01   0.00000E+00   0.00000E+00   0.35385E+01   0.44284E+00   0.15597E+02   0.10483E-06   0.14338E-04   0.10307E+01   0.49001E+02  -0.14122E+01   0.17072E+01
   0.17493E-01   0.47544E-03   0.34295E+23   0.22807E-03   0.50570E+02  -0.11580E+01  -0.24019E+01   0.35336E+01   0.00000E+00   0.00000E+00   0.35336E+01   0.45797E+00   0.15333E+02   0.10677E-06   0.14594E-04   0.10207E+01   0.50640E+02  -0.13117E+01   0.16731E+01
   0.17235E-01   0.38953E-03   0.34585E+23   0.22999E-03   0.49954E+02  -0.96780E+00  -0.57743E-01   0.35404E+01   0.00000E+00   0.00000E+00   0.35404E+01   0.45142E+00   0.15444E+02   0.10612E-06   0.14519E-04   0.10228E+01   0.49963E+02  -0.11099E+01   0.16904E+01
   0.17321E-01   0.38953E-03   0.34266E+23   0.22787E-03   0.49460E+02  -0.21787E+00  -0.15365E+00   0.35524E+01   0.00000E+00   0.00000E+00   0.35524E+01   0.44612E+00   0.15298E+02   0.10616E-06   0.14549E-04   0.10248E+01   0.49461E+02  -0.25239E+00   0.16806E+01
   0.17407E-01   0.47544E-03   0.34213E+23   0.22752E-03   0.50621E+02  -0.76905E+00  -0.23496E+00   0.35512E+01   0.00000E+00   0.00000E+00   0.35512E+01   0.45672E+00   0.15295E+02   0.10648E-06   0.14589E-04   0.10194E+01   0.50627E+02  -0.87039E+00   0.16774E+01
   0.17493E-01   0.35201E-03   0.33805E+23   0.22480E-03   0.51281E+02  -0.33968E+00  -0.39314E+00   0.35330E+01   0.00000E+00   0.00000E+00   0.35330E+01   0.46383E+00   0.30125E+02   0.10808E-06   0.14771E-04   0.10143E+01   0.51284E+02  -0.37951E+00   0.16489E+01
   0.17278E-01   0.30378E-03   0.34010E+23   0.22616E-03   0.51042E+02  -0.87465E+00  -0.11182E+01   0.35577E+01   0.00000E+00   0.00000E+00   0.35577E+01   0.46022E+00   0.30303E+02   0.10675E-06   0.14640E-04   0.10234E+01   0.51062E+02  -0.98171E+00   0.16705E+01
   0.17235E-01   0.47544E-03   0.34446E+23   0.22907E-03   0.49580E+02  -0.85867E+00  -0.80006E-01   0.35581E+01   0.00000E+00   0.00000E+00   0.35581E+01   0.44690E+00   0.15400E+02   0.10590E-06   0.14525E-04   0.10222E+01   0.49587E+02  -0.99220E+00   0.16921E+01
   0.17493E-01   0.11494E-03   0.33073E+23   0.21993E-03   0.52033E+02  -0.25939E+00  -0.33451E+00   0.34852E+01   0.00000E+00   0.00000E+00   0.34852E+01   0.47384E+00   0.27331E+02   0.10046E-06   0.13637E-04   0.11466E+01   0.52034E+02  -0.28563E+00   0.15913E+01
   0.17321E-01   0.57471E-04   0.32563E+23   0.21654E-03   0.50368E+02   0.99994E+00  -0.35712E+00   0.34830E+01   0.00000E+00   0.00000E+00   0.34830E+01   0.45891E+00   0.12868E+02   0.91838E-07   0.12462E-04   0.12852E+01   0.50379E+02   0.11373E+01   0.15659E+01
   0.17407E-01   0.11494E-03   0.33337E+23   0.22169E-03   0.50544E+02  -0.14712E+00   0.83178E-02   0.34798E+01   0.00000E+00   0.00000E+00   0.34798E+01   0.46062E+00   0.27592E+02   0.99101E-07   0.13442E-04   0.11583E+01   0.50544E+02  -0.16678E+00   0.16016E+01
   0.17321E-01   0.47544E-03   0.34613E+23   0.23018E-03   0.50320E+02   0.29360E+00  -0.50406E+00   0.35377E+01   0.00000E+00   0.00000E+00   0.35377E+01   0.45485E+00   0.15477E+02   0.10594E-06   0.14488E-04   0.10231E+01   0.50324E+02   0.33429E+00   0.16905E+01
   0.17794E-01   0.30378E-03   0.33478E+23   0.22263E-03   0.52665E+02  -0.25932E+00  -0.12864E+01   0.35319E+01   0.00000E+00   0.00000E+00   0.35319E+01   0.47655E+00   0.29830E+02   0.10896E-06   0.14889E-04   0.10148E+01   0.52682E+02  -0.28212E+00   0.16324E+01
   0.17622E-01   0.26820E-03   0.33710E+23   0.22417E-03   0.51551E+02   0.20838E+00  -0.34021E+00   0.35210E+01   0.00000E+00   0.00000E+00   0.35210E+01   0.46706E+00   0.59903E+02   0.10816E-06   0.14756E-04   0.10208E+01   0.51553E+02   0.23160E+00   0.16387E+01
   0.17622E-01   0.13410E-03   0.33125E+23   0.22028E-03   0.51706E+02  -0.71430E-01  -0.61318E+00   0.34971E+01   0.00000E+00   0.00000E+00   0.34971E+01   0.47007E+00   0.29076E+02   0.10786E-06   0.14666E-04   0.10412E+01   0.51709E+02  -0.79153E-01   0.15993E+01
   0.17923E-01   0.13410E-03   0.32421E+23   0.21560E-03   0.53302E+02  -0.43550E+00   0.12747E+00   0.35302E+01   0.00000E+00   0.00000E+00   0.35302E+01   0.48229E+00   0.14223E+02   0.10878E-06   0.14861E-04   0.10350E+01   0.53304E+02  -0.46813E+00   0.15801E+01
   0.17794E-01   0.13410E-03   0.32702E+23   0.21747E-03   0.52202E+02   0.10077E+00   0.26384E+00   0.35155E+01   0.00000E+00   0.00000E+00   0.35155E+01   0.47332E+00   0.28703E+02   0.10863E-06   0.14809E-04   0.10355E+01   0.52203E+02   0.11060E+00   0.15872E+01
   0.17923E-01   0.30378E-03   0.33737E+23   0.22435E-03   0.52533E+02  -0.40811E+00  -0.10249E+01   0.35237E+01   0.00000E+00   0.00000E+00   0.35237E+01   0.47586E+00   0.15023E+02   0.10874E-06   0.14841E-04   0.10110E+01   0.52545E+02  -0.44510E+00   0.16413E+01
   0.17622E-01   0.38953E-03   0.33933E+23   0.22565E-03   0.51928E+02   0.46177E-01  -0.16437E+01   0.35371E+01   0.00000E+00   0.00000E+00   0.35371E+01   0.46962E+00   0.30308E+02   0.10748E-06   0.14698E-04   0.10164E+01   0.51954E+02   0.50950E-01   0.16570E+01
   0.18009E-01   0.30378E-03   0.33427E+23   0.22229E-03   0.53529E+02  -0.55682E+00  -0.88548E-01   0.35241E+01   0.00000E+00   0.00000E+00   0.35241E+01   0.48478E+00   0.14888E+02   0.10951E-06   0.14948E-04   0.10094E+01   0.53532E+02  -0.59597E+00   0.16264E+01
   0.17622E-01   0.47544E-03   0.34227E+23   0.22761E-03   0.51075E+02  -0.44324E+00  -0.17619E+01   0.35630E+01   0.00000E+00   0.00000E+00   0.35630E+01   0.46029E+00   0.30598E+02   0.10655E-06   0.14623E-04   0.10183E+01   0.51108E+02  -0.49721E+00   0.16837E+01
   0.17751E-01   0.43678E-03   0.34022E+23   0.22624E-03   0.51860E+02  -0.23835E+00  -0.13942E+01   0.35543E+01   0.00000E+00   0.00000E+00   0.35543E+01   0.46781E+00   0.30391E+02   0.10696E-06   0.14662E-04   0.10188E+01   0.51880E+02  -0.26333E+00   0.16695E+01
   0.18009E-01   0.21839E-03   0.33179E+23   0.22064E-03   0.53708E+02  -0.13247E+00   0.10284E+00   0.35186E+01   0.00000E+00   0.00000E+00   0.35186E+01   0.48676E+00   0.14724E+02   0.10909E-06   0.14879E-04   0.10181E+01   0.53708E+02  -0.14132E+00   0.16117E+01