VARIABLES = "X","Y","ND","D","U","V","W","TTR","TRT","TVB","TOV","MA","MC","MCT","MFP","SOF","FSP","ANG","P"
 ZONE I=       11473  F=POINT
   0.15258E-01   0.26820E-03   0.32018E+23   0.21292E-03   0.37471E+02  -0.32949E+00   0.86040E+00   0.35406E+01   0.00000E+00   0.00000E+00   0.35406E+01   0.33865E+00   0.56838E+02   0.11306E-06   0.15468E-04   0.99841E+00   0.37483E+02  -0.50379E+00   0.15651E+01
   0.15086E-01   0.26820E-03   0.32448E+23   0.21578E-03   0.35064E+02  -0.52011E-01   0.16422E+00   0.35447E+01   0.00000E+00   0.00000E+00   0.35447E+01   0.31661E+00   0.57714E+02   0.11238E-06   0.15385E-04   0.98299E+00   0.35064E+02  -0.84989E-01   0.15879E+01
   0.15387E-01   0.40230E-03   0.32335E+23   0.21503E-03   0.36329E+02  -0.61614E+00   0.83754E+00   0.35541E+01   0.00000E+00   0.00000E+00   0.35541E+01   0.32774E+00   0.57724E+02   0.11320E-06   0.15517E-04   0.98711E+00   0.36344E+02  -0.97162E+00   0.15866E+01
   0.15043E-01   0.13410E-03   0.31849E+23   0.21179E-03   0.36482E+02   0.26802E+00  -0.33550E+00   0.35313E+01   0.00000E+00   0.00000E+00   0.35313E+01   0.33006E+00   0.20956E+02   0.11183E-06   0.15280E-04   0.99883E+00   0.36484E+02   0.42093E+00   0.15527E+01
   0.15043E-01   0.38953E-03   0.32550E+23   0.21646E-03   0.34512E+02  -0.33359E+00   0.69722E+00   0.35732E+01   0.00000E+00   0.00000E+00   0.35732E+01   0.31046E+00   0.21801E+02   0.11197E-06   0.15389E-04   0.97988E+00   0.34520E+02  -0.55381E+00   0.16058E+01
   0.15043E-01   0.47544E-03   0.32636E+23   0.21703E-03   0.33588E+02  -0.59913E+00   0.16822E+00   0.35911E+01   0.00000E+00   0.00000E+00   0.35911E+01   0.30136E+00   0.21880E+02   0.11155E-06   0.15370E-04   0.98019E+00   0.33594E+02  -0.10219E+01   0.16181E+01
   0.15215E-01   0.47544E-03   0.32450E+23   0.21579E-03   0.35947E+02  -0.80488E-01   0.19973E+00   0.35770E+01   0.00000E+00   0.00000E+00   0.35770E+01   0.32312E+00   0.29013E+02   0.11210E-06   0.15415E-04   0.99465E+00   0.35948E+02  -0.12829E+00   0.16025E+01
   0.15258E-01   0.38953E-03   0.32144E+23   0.21376E-03   0.36726E+02  -0.21316E+00   0.32214E+00   0.35752E+01   0.00000E+00   0.00000E+00   0.35752E+01   0.33022E+00   0.14356E+02   0.11279E-06   0.15506E-04   0.99105E+00   0.36728E+02  -0.33254E+00   0.15866E+01
   0.15215E-01   0.57471E-04   0.30419E+23   0.20229E-03   0.39118E+02  -0.23098E-01   0.85132E+00   0.35126E+01   0.00000E+00   0.00000E+00   0.35126E+01   0.35491E+00   0.24046E+02   0.98099E-07   0.13368E-04   0.12366E+01   0.39127E+02  -0.33832E-01   0.14752E+01
   0.15387E-01   0.57471E-04   0.30685E+23   0.20406E-03   0.39654E+02   0.31079E-01  -0.10541E+00   0.34689E+01   0.00000E+00   0.00000E+00   0.34689E+01   0.36194E+00   0.24309E+02   0.98160E-07   0.13293E-04   0.12311E+01   0.39654E+02   0.44907E-01   0.14696E+01
   0.15172E-01   0.38953E-03   0.32512E+23   0.21621E-03   0.36353E+02  -0.42313E+00   0.61176E+00   0.35399E+01   0.00000E+00   0.00000E+00   0.35399E+01   0.32854E+00   0.14516E+02   0.11224E-06   0.15355E-04   0.99547E+00   0.36361E+02  -0.66687E+00   0.15889E+01
   0.15043E-01   0.57471E-04   0.30897E+23   0.20546E-03   0.37132E+02   0.33732E+00   0.32632E+00   0.35199E+01   0.00000E+00   0.00000E+00   0.35199E+01   0.33649E+00   0.18300E+02   0.96755E-07   0.13199E-04   0.12259E+01   0.37135E+02   0.52049E+00   0.15015E+01
   0.15344E-01   0.13410E-03   0.31173E+23   0.20730E-03   0.39490E+02  -0.36936E+00  -0.16291E+00   0.35080E+01   0.00000E+00   0.00000E+00   0.35080E+01   0.35845E+00   0.41058E+02   0.11420E-06   0.15552E-04   0.10064E+01   0.39492E+02  -0.53589E+00   0.15098E+01
   0.15172E-01   0.13410E-03   0.31650E+23   0.21047E-03   0.38149E+02   0.51286E-01   0.45414E-01   0.35172E+01   0.00000E+00   0.00000E+00   0.35172E+01   0.34582E+00   0.13879E+02   0.11252E-06   0.15344E-04   0.10171E+01   0.38149E+02   0.77026E-01   0.15368E+01
   0.15645E-01   0.21839E-03   0.31694E+23   0.21077E-03   0.39292E+02   0.13389E+00   0.10925E+01   0.35126E+01   0.00000E+00   0.00000E+00   0.35126E+01   0.35654E+00   0.28089E+02   0.11510E-06   0.15685E-04   0.99064E+00   0.39307E+02   0.19524E+00   0.15370E+01
   0.15860E-01   0.30378E-03   0.31786E+23   0.21138E-03   0.39106E+02  -0.63362E+00   0.22490E+01   0.35375E+01   0.00000E+00   0.00000E+00   0.35375E+01   0.35410E+00   0.14164E+02   0.11472E-06   0.15688E-04   0.98543E+00   0.39176E+02  -0.92825E+00   0.15524E+01
   0.15860E-01   0.11494E-03   0.30602E+23   0.20350E-03   0.40044E+02  -0.28159E+00   0.14622E+01   0.35174E+01   0.00000E+00   0.00000E+00   0.35174E+01   0.36322E+00   0.25302E+02   0.10807E-06   0.14737E-04   0.11061E+01   0.40071E+02  -0.40291E+00   0.14861E+01
   0.15645E-01   0.38953E-03   0.32024E+23   0.21296E-03   0.38211E+02  -0.79360E+00   0.77165E+00   0.35538E+01   0.00000E+00   0.00000E+00   0.35538E+01   0.34473E+00   0.28586E+02   0.11376E-06   0.15593E-04   0.98709E+00   0.38227E+02  -0.11898E+01   0.15712E+01
   0.15946E-01   0.47544E-03   0.32255E+23   0.21449E-03   0.40135E+02  -0.17232E+01   0.65378E-01   0.35307E+01   0.00000E+00   0.00000E+00   0.35307E+01   0.36345E+00   0.14420E+02   0.11389E-06   0.15560E-04   0.98583E+00   0.40172E+02  -0.24586E+01   0.15722E+01
   0.15817E-01   0.38953E-03   0.32118E+23   0.21359E-03   0.38874E+02  -0.40531E+00   0.96895E+00   0.35406E+01   0.00000E+00   0.00000E+00   0.35406E+01   0.35134E+00   0.28672E+02   0.11364E-06   0.15547E-04   0.98951E+00   0.38888E+02  -0.59737E+00   0.15700E+01
   0.15688E-01   0.47544E-03   0.32455E+23   0.21583E-03   0.37112E+02  -0.15159E+01  -0.24000E+00   0.35538E+01   0.00000E+00   0.00000E+00   0.35538E+01   0.33496E+00   0.14506E+02   0.11255E-06   0.15427E-04   0.99196E+00   0.37144E+02  -0.23390E+01   0.15924E+01
   0.15774E-01   0.30378E-03   0.31800E+23   0.21147E-03   0.38982E+02  -0.59165E+00   0.14828E+01   0.35416E+01   0.00000E+00   0.00000E+00   0.35416E+01   0.35243E+00   0.14156E+02   0.11492E-06   0.15726E-04   0.98696E+00   0.39015E+02  -0.86955E+00   0.15549E+01
   0.15774E-01   0.21839E-03   0.31415E+23   0.20891E-03   0.39537E+02  -0.45378E+00   0.14622E+01   0.35222E+01   0.00000E+00   0.00000E+00   0.35222E+01   0.35840E+00   0.13936E+02   0.11561E-06   0.15776E-04   0.98701E+00   0.39566E+02  -0.65758E+00   0.15277E+01
   0.15688E-01   0.13410E-03   0.31057E+23   0.20653E-03   0.39690E+02  -0.15728E+00   0.13706E+01   0.35226E+01   0.00000E+00   0.00000E+00   0.35226E+01   0.35972E+00   0.13638E+02   0.11483E-06   0.15671E-04   0.10046E+01   0.39714E+02  -0.22705E+00   0.15104E+01
   0.15817E-01   0.47544E-03   0.32309E+23   0.21485E-03   0.38944E+02  -0.58314E+00   0.80230E-01   0.35403E+01   0.00000E+00   0.00000E+00   0.35403E+01   0.35190E+00   0.28894E+02   0.11300E-06   0.15459E-04   0.99135E+00   0.38949E+02  -0.85787E+00   0.15792E+01
   0.15516E-01   0.32020E-03   0.31895E+23   0.21210E-03   0.37919E+02  -0.46854E+00   0.51170E+00   0.35255E+01   0.00000E+00   0.00000E+00   0.35255E+01   0.34338E+00   0.85076E+02   0.11468E-06   0.15657E-04   0.98172E+00   0.37925E+02  -0.70794E+00   0.15524E+01
   0.15903E-01   0.21839E-03   0.31225E+23   0.20765E-03   0.40083E+02  -0.92387E-01   0.23427E+01   0.35357E+01   0.00000E+00   0.00000E+00   0.35357E+01   0.36301E+00   0.27697E+02   0.11658E-06   0.15939E-04   0.98295E+00   0.40152E+02  -0.13206E+00   0.15242E+01
   0.15516E-01   0.47544E-03   0.32338E+23   0.21505E-03   0.36246E+02  -0.97568E+00   0.18990E+00   0.35628E+01   0.00000E+00   0.00000E+00   0.35628E+01   0.32657E+00   0.43378E+02   0.11251E-06   0.15441E-04   0.98850E+00   0.36260E+02  -0.15419E+01   0.15906E+01
   0.15946E-01   0.13410E-03   0.30777E+23   0.20467E-03   0.40709E+02   0.44542E-02   0.18781E+01   0.35255E+01   0.00000E+00   0.00000E+00   0.35255E+01   0.36897E+00   0.13515E+02   0.11541E-06   0.15756E-04   0.10032E+01   0.40753E+02   0.62690E-02   0.14980E+01
   0.15688E-01   0.30378E-03   0.31681E+23   0.21068E-03   0.38840E+02   0.25184E+00   0.91121E+00   0.35424E+01   0.00000E+00   0.00000E+00   0.35424E+01   0.35093E+00   0.14106E+02   0.11446E-06   0.15664E-04   0.98898E+00   0.38852E+02   0.37150E+00   0.15494E+01
   0.15602E-01   0.57471E-04   0.30334E+23   0.20172E-03   0.40620E+02  -0.80726E-01   0.88638E+00   0.34994E+01   0.00000E+00   0.00000E+00   0.34994E+01   0.36923E+00   0.35869E+02   0.99212E-07   0.13495E-04   0.12256E+01   0.40629E+02  -0.11387E+00   0.14655E+01
   0.15989E-01   0.35201E-03   0.31774E+23   0.21130E-03   0.39875E+02  -0.60732E+00   0.12439E+01   0.35220E+01   0.00000E+00   0.00000E+00   0.35220E+01   0.36143E+00   0.42481E+02   0.11502E-06   0.15695E-04   0.98427E+00   0.39900E+02  -0.87258E+00   0.15450E+01
   0.15774E-01   0.11494E-03   0.30538E+23   0.20308E-03   0.40113E+02  -0.52611E-01   0.12659E+01   0.35202E+01   0.00000E+00   0.00000E+00   0.35202E+01   0.36364E+00   0.25313E+02   0.10759E-06   0.14677E-04   0.11066E+01   0.40133E+02  -0.75147E-01   0.14842E+01
   0.15559E-01   0.13410E-03   0.31084E+23   0.20671E-03   0.39908E+02  -0.18284E-01   0.15883E+01   0.35137E+01   0.00000E+00   0.00000E+00   0.35137E+01   0.36223E+00   0.27283E+02   0.11435E-06   0.15585E-04   0.10026E+01   0.39940E+02  -0.26250E-01   0.15079E+01
   0.16203E-01   0.21839E-03   0.31008E+23   0.20620E-03   0.41983E+02  -0.86727E+00   0.10791E+01   0.35359E+01   0.00000E+00   0.00000E+00   0.35359E+01   0.37976E+00   0.41258E+02   0.11700E-06   0.15996E-04   0.98014E+00   0.42006E+02  -0.11834E+01   0.15137E+01
   0.16418E-01   0.21839E-03   0.31019E+23   0.20628E-03   0.43614E+02  -0.10147E+01   0.44274E+00   0.35168E+01   0.00000E+00   0.00000E+00   0.35168E+01   0.39550E+00   0.27520E+02   0.11705E-06   0.15960E-04   0.97977E+00   0.43628E+02  -0.13328E+01   0.15061E+01
   0.16074E-01   0.38953E-03   0.31998E+23   0.21279E-03   0.40360E+02  -0.76003E+00   0.28411E+00   0.35019E+01   0.00000E+00   0.00000E+00   0.35019E+01   0.36672E+00   0.28563E+02   0.11472E-06   0.15610E-04   0.98501E+00   0.40368E+02  -0.10788E+01   0.15470E+01
   0.16289E-01   0.38953E-03   0.31675E+23   0.21064E-03   0.42276E+02  -0.83110E+00   0.65667E+00   0.35214E+01   0.00000E+00   0.00000E+00   0.35214E+01   0.38311E+00   0.14139E+02   0.11563E-06   0.15776E-04   0.98234E+00   0.42289E+02  -0.11262E+01   0.15399E+01
   0.16289E-01   0.57471E-04   0.29298E+23   0.19483E-03   0.43814E+02   0.57371E-03  -0.66785E+00   0.35041E+01   0.00000E+00   0.00000E+00   0.35041E+01   0.39795E+00   0.11520E+02   0.10248E-06   0.13949E-04   0.12055E+01   0.43819E+02   0.75024E-03   0.14174E+01
   0.16074E-01   0.47544E-03   0.32359E+23   0.21519E-03   0.40655E+02  -0.11693E+01   0.30889E+00   0.35261E+01   0.00000E+00   0.00000E+00   0.35261E+01   0.36822E+00   0.28936E+02   0.11335E-06   0.15477E-04   0.99154E+00   0.40673E+02  -0.16475E+01   0.15753E+01
   0.16246E-01   0.13410E-03   0.30472E+23   0.20264E-03   0.42578E+02  -0.35471E+00   0.85529E+00   0.35268E+01   0.00000E+00   0.00000E+00   0.35268E+01   0.38552E+00   0.26741E+02   0.11642E-06   0.15897E-04   0.99962E+00   0.42588E+02  -0.47731E+00   0.14837E+01
   0.16203E-01   0.38953E-03   0.31903E+23   0.21215E-03   0.41366E+02  -0.15469E+01   0.13668E+01   0.35326E+01   0.00000E+00   0.00000E+00   0.35326E+01   0.37462E+00   0.14239E+02   0.11482E-06   0.15691E-04   0.98638E+00   0.41418E+02  -0.21416E+01   0.15560E+01
   0.16418E-01   0.47544E-03   0.31893E+23   0.21209E-03   0.42584E+02  -0.13724E+01   0.59071E+00   0.35305E+01   0.00000E+00   0.00000E+00   0.35305E+01   0.38552E+00   0.28519E+02   0.11490E-06   0.15698E-04   0.98041E+00   0.42610E+02  -0.18459E+01   0.15545E+01
   0.16375E-01   0.13410E-03   0.30453E+23   0.20251E-03   0.43208E+02  -0.85327E+00  -0.48695E-02   0.35236E+01   0.00000E+00   0.00000E+00   0.35236E+01   0.39139E+00   0.13368E+02   0.11751E-06   0.16039E-04   0.99160E+00   0.43216E+02  -0.11313E+01   0.14814E+01
   0.16418E-01   0.38953E-03   0.31770E+23   0.21127E-03   0.42865E+02  -0.17225E+01   0.56197E+00   0.35446E+01   0.00000E+00   0.00000E+00   0.35446E+01   0.38739E+00   0.28364E+02   0.11493E-06   0.15733E-04   0.98262E+00   0.42903E+02  -0.23012E+01   0.15547E+01
   0.16375E-01   0.57471E-04   0.29570E+23   0.19664E-03   0.44872E+02  -0.97444E-01  -0.61456E+00   0.35008E+01   0.00000E+00   0.00000E+00   0.35008E+01   0.40774E+00   0.11676E+02   0.10162E-06   0.13824E-04   0.12084E+01   0.44876E+02  -0.12442E+00   0.14292E+01
   0.16203E-01   0.57471E-04   0.29824E+23   0.19833E-03   0.44333E+02   0.18384E+00   0.19912E+00   0.35178E+01   0.00000E+00   0.00000E+00   0.35178E+01   0.40184E+00   0.11801E+02   0.10046E-06   0.13700E-04   0.12135E+01   0.44334E+02   0.23759E+00   0.14485E+01
   0.16074E-01   0.18678E-03   0.30711E+23   0.20423E-03   0.40978E+02  -0.54641E+00   0.12917E+01   0.35446E+01   0.00000E+00   0.00000E+00   0.35446E+01   0.37023E+00   0.40480E+02   0.11642E-06   0.15937E-04   0.99032E+00   0.41002E+02  -0.76396E+00   0.15029E+01
   0.16246E-01   0.47544E-03   0.32003E+23   0.21282E-03   0.41587E+02  -0.14161E+01   0.55039E+00   0.35330E+01   0.00000E+00   0.00000E+00   0.35330E+01   0.37639E+00   0.28612E+02   0.11407E-06   0.15589E-04   0.98816E+00   0.41615E+02  -0.19502E+01   0.15610E+01
   0.16461E-01   0.30378E-03   0.31387E+23   0.20873E-03   0.43223E+02  -0.87414E+00   0.66424E+00   0.35101E+01   0.00000E+00   0.00000E+00   0.35101E+01   0.39233E+00   0.41932E+02   0.11626E-06   0.15837E-04   0.98181E+00   0.43237E+02  -0.11586E+01   0.15210E+01
   0.16117E-01   0.57471E-04   0.29942E+23   0.19911E-03   0.42727E+02  -0.92050E+00   0.15958E+01   0.34951E+01   0.00000E+00   0.00000E+00   0.34951E+01   0.38889E+00   0.11884E+02   0.99288E-07   0.13497E-04   0.12282E+01   0.42767E+02  -0.12342E+01   0.14448E+01
   0.16203E-01   0.30378E-03   0.31541E+23   0.20975E-03   0.40979E+02  -0.10143E+01   0.17695E+00   0.35337E+01   0.00000E+00   0.00000E+00   0.35337E+01   0.37071E+00   0.42126E+02   0.11566E-06   0.15809E-04   0.98222E+00   0.40992E+02  -0.14179E+01   0.15388E+01
   0.15989E-01   0.57471E-04   0.29528E+23   0.19636E-03   0.41723E+02   0.48752E-01   0.11273E+01   0.35369E+01   0.00000E+00   0.00000E+00   0.35369E+01   0.37729E+00   0.23183E+02   0.10152E-06   0.13882E-04   0.12093E+01   0.41738E+02   0.66949E-01   0.14419E+01
   0.16762E-01   0.21839E-03   0.30776E+23   0.20466E-03   0.45219E+02  -0.15197E+00   0.14200E+01   0.35148E+01   0.00000E+00   0.00000E+00   0.35148E+01   0.41024E+00   0.27290E+02   0.11838E-06   0.16137E-04   0.97334E+00   0.45242E+02  -0.19256E+00   0.14934E+01
   0.16891E-01   0.38953E-03   0.31120E+23   0.20695E-03   0.46252E+02  -0.77351E+00  -0.23539E+00   0.35258E+01   0.00000E+00   0.00000E+00   0.35258E+01   0.41881E+00   0.41665E+02   0.11789E-06   0.16095E-04   0.96903E+00   0.46259E+02  -0.95811E+00   0.15148E+01
   0.16891E-01   0.21839E-03   0.30419E+23   0.20229E-03   0.46490E+02  -0.65260E-01   0.68853E+00   0.35000E+01   0.00000E+00   0.00000E+00   0.35000E+01   0.42250E+00   0.13486E+02   0.11987E-06   0.16306E-04   0.96684E+00   0.46495E+02  -0.80428E-01   0.14699E+01
   0.16719E-01   0.38953E-03   0.31228E+23   0.20767E-03   0.45076E+02  -0.10416E+01   0.64165E-01   0.35437E+01   0.00000E+00   0.00000E+00   0.35437E+01   0.40718E+00   0.13942E+02   0.11675E-06   0.15980E-04   0.97396E+00   0.45088E+02  -0.13237E+01   0.15278E+01
   0.16633E-01   0.57471E-04   0.29704E+23   0.19753E-03   0.43800E+02  -0.35772E+00   0.94008E+00   0.34972E+01   0.00000E+00   0.00000E+00   0.34972E+01   0.39828E+00   0.11675E+02   0.10138E-06   0.13785E-04   0.12133E+01   0.43812E+02  -0.46793E+00   0.14342E+01
   0.16891E-01   0.47544E-03   0.31400E+23   0.20881E-03   0.45680E+02  -0.12756E+01  -0.63396E+00   0.35242E+01   0.00000E+00   0.00000E+00   0.35242E+01   0.41387E+00   0.14038E+02   0.11688E-06   0.15954E-04   0.97571E+00   0.45702E+02  -0.15996E+01   0.15278E+01
   0.16504E-01   0.57471E-04   0.29131E+23   0.19372E-03   0.44468E+02   0.63378E+00   0.18100E+00   0.35384E+01   0.00000E+00   0.00000E+00   0.35384E+01   0.40192E+00   0.22937E+02   0.10219E-06   0.13977E-04   0.12083E+01   0.44472E+02   0.81655E+00   0.14231E+01
   0.16590E-01   0.38953E-03   0.31607E+23   0.21019E-03   0.44437E+02  -0.83581E+00   0.50898E+00   0.35327E+01   0.00000E+00   0.00000E+00   0.35327E+01   0.40203E+00   0.28222E+02   0.11559E-06   0.15797E-04   0.98221E+00   0.44448E+02  -0.10775E+01   0.15415E+01
   0.16504E-01   0.13410E-03   0.30093E+23   0.20012E-03   0.45105E+02  -0.46115E-01   0.65034E+00   0.35247E+01   0.00000E+00   0.00000E+00   0.35247E+01   0.40847E+00   0.26421E+02   0.11757E-06   0.16050E-04   0.99305E+00   0.45110E+02  -0.58578E-01   0.14644E+01
   0.16590E-01   0.21839E-03   0.30966E+23   0.20592E-03   0.43901E+02  -0.17748E+00   0.10064E+01   0.34946E+01   0.00000E+00   0.00000E+00   0.34946E+01   0.39934E+00   0.27458E+02   0.11815E-06   0.16059E-04   0.97670E+00   0.43913E+02  -0.23163E+00   0.14940E+01
   0.16934E-01   0.30378E-03   0.30692E+23   0.20410E-03   0.47184E+02  -0.78339E+00  -0.21835E+00   0.35047E+01   0.00000E+00   0.00000E+00   0.35047E+01   0.42854E+00   0.27342E+02   0.11880E-06   0.16171E-04   0.97181E+00   0.47191E+02  -0.95118E+00   0.14851E+01
   0.16891E-01   0.57471E-04   0.29277E+23   0.19469E-03   0.45712E+02  -0.18418E+00   0.77716E+00   0.34974E+01   0.00000E+00   0.00000E+00   0.34974E+01   0.41560E+00   0.11527E+02   0.10284E-06   0.13985E-04   0.12037E+01   0.45719E+02  -0.23086E+00   0.14136E+01
   0.16719E-01   0.30378E-03   0.31187E+23   0.20739E-03   0.45386E+02  -0.62606E+00   0.78037E+00   0.35138E+01   0.00000E+00   0.00000E+00   0.35138E+01   0.41172E+00   0.41655E+02   0.11697E-06   0.15942E-04   0.97876E+00   0.45397E+02  -0.79029E+00   0.15129E+01
   0.16762E-01   0.47544E-03   0.31503E+23   0.20949E-03   0.44678E+02  -0.10236E+01  -0.53952E+00   0.35332E+01   0.00000E+00   0.00000E+00   0.35332E+01   0.40421E+00   0.28166E+02   0.11623E-06   0.15885E-04   0.97583E+00   0.44693E+02  -0.13124E+01   0.15367E+01
   0.16805E-01   0.13410E-03   0.29939E+23   0.19909E-03   0.46012E+02   0.44241E-01   0.11180E+01   0.35023E+01   0.00000E+00   0.00000E+00   0.35023E+01   0.41809E+00   0.39407E+02   0.11868E-06   0.16149E-04   0.99056E+00   0.46026E+02   0.55091E-01   0.14476E+01
   0.16633E-01   0.13410E-03   0.30325E+23   0.20166E-03   0.45197E+02  -0.25836E+00   0.14526E+01   0.34977E+01   0.00000E+00   0.00000E+00   0.34977E+01   0.41105E+00   0.13320E+02   0.11752E-06   0.15981E-04   0.99523E+00   0.45221E+02  -0.32752E+00   0.14644E+01
   0.16590E-01   0.47544E-03   0.31880E+23   0.21200E-03   0.42629E+02  -0.11491E+01  -0.62972E-01   0.35236E+01   0.00000E+00   0.00000E+00   0.35236E+01   0.38621E+00   0.28495E+02   0.11500E-06   0.15696E-04   0.98275E+00   0.42644E+02  -0.15441E+01   0.15509E+01
   0.16762E-01   0.57471E-04   0.29363E+23   0.19527E-03   0.45619E+02  -0.49422E-01   0.68808E+00   0.34789E+01   0.00000E+00   0.00000E+00   0.34789E+01   0.41584E+00   0.23098E+02   0.10221E-06   0.13861E-04   0.12126E+01   0.45624E+02  -0.62073E-01   0.14103E+01
   0.17235E-01   0.21839E-03   0.30212E+23   0.20091E-03   0.48272E+02  -0.22484E+00  -0.95482E+00   0.35229E+01   0.00000E+00   0.00000E+00   0.35229E+01   0.43731E+00   0.13394E+02   0.12066E-06   0.16467E-04   0.96395E+00   0.48282E+02  -0.26687E+00   0.14694E+01
   0.17407E-01   0.35201E-03   0.30590E+23   0.20342E-03   0.49415E+02  -0.70924E+00   0.26513E+00   0.35012E+01   0.00000E+00   0.00000E+00   0.35012E+01   0.44900E+00   0.27259E+02   0.11949E-06   0.16256E-04   0.96733E+00   0.49420E+02  -0.82230E+00   0.14786E+01
   0.17364E-01   0.13410E-03   0.29772E+23   0.19798E-03   0.47910E+02  -0.39090E+00  -0.71363E-01   0.34795E+01   0.00000E+00   0.00000E+00   0.34795E+01   0.43665E+00   0.26119E+02   0.11995E-06   0.16268E-04   0.98256E+00   0.47912E+02  -0.46747E+00   0.14302E+01
   0.17149E-01   0.38953E-03   0.30984E+23   0.20605E-03   0.47326E+02  -0.89549E+00   0.16078E-02   0.35137E+01   0.00000E+00   0.00000E+00   0.35137E+01   0.42929E+00   0.41485E+02   0.11840E-06   0.16137E-04   0.96694E+00   0.47335E+02  -0.10840E+01   0.15030E+01
   0.17235E-01   0.30378E-03   0.30867E+23   0.20526E-03   0.47766E+02  -0.45169E+00  -0.18518E-01   0.34838E+01   0.00000E+00   0.00000E+00   0.34838E+01   0.43507E+00   0.13755E+02   0.11847E-06   0.16078E-04   0.97430E+00   0.47768E+02  -0.54179E+00   0.14846E+01
   0.17321E-01   0.47544E-03   0.31208E+23   0.20754E-03   0.48117E+02  -0.12430E+01   0.28020E-01   0.34933E+01   0.00000E+00   0.00000E+00   0.34933E+01   0.43780E+00   0.41847E+02   0.11770E-06   0.15995E-04   0.97293E+00   0.48133E+02  -0.14798E+01   0.15051E+01
   0.17278E-01   0.57471E-04   0.28943E+23   0.19247E-03   0.46184E+02  -0.38953E+00   0.92412E-01   0.34598E+01   0.00000E+00   0.00000E+00   0.34598E+01   0.42212E+00   0.22768E+02   0.10453E-06   0.14137E-04   0.11958E+01   0.46186E+02  -0.48324E+00   0.13825E+01
   0.17063E-01   0.47544E-03   0.31280E+23   0.20801E-03   0.46826E+02  -0.79423E+00  -0.40146E+00   0.35116E+01   0.00000E+00   0.00000E+00   0.35116E+01   0.42488E+00   0.41945E+02   0.11711E-06   0.15956E-04   0.97456E+00   0.46834E+02  -0.97172E+00   0.15165E+01
   0.17192E-01   0.13410E-03   0.29852E+23   0.19852E-03   0.47339E+02   0.99044E-01  -0.88214E+00   0.34928E+01   0.00000E+00   0.00000E+00   0.34928E+01   0.43069E+00   0.26214E+02   0.11919E-06   0.16197E-04   0.98619E+00   0.47348E+02   0.11987E+00   0.14395E+01
   0.17407E-01   0.57471E-04   0.28746E+23   0.19116E-03   0.47802E+02  -0.71582E+00  -0.45672E-01   0.34883E+01   0.00000E+00   0.00000E+00   0.34883E+01   0.43515E+00   0.11354E+02   0.10398E-06   0.14121E-04   0.12002E+01   0.47807E+02  -0.85792E+00   0.13844E+01
   0.17321E-01   0.35201E-03   0.30662E+23   0.20390E-03   0.48913E+02  -0.83062E+00   0.10178E+00   0.35030E+01   0.00000E+00   0.00000E+00   0.35030E+01   0.44435E+00   0.27347E+02   0.11941E-06   0.16250E-04   0.96693E+00   0.48920E+02  -0.97287E+00   0.14829E+01
   0.17149E-01   0.30378E-03   0.30530E+23   0.20303E-03   0.47370E+02  -0.68300E+00   0.28322E+00   0.35130E+01   0.00000E+00   0.00000E+00   0.35130E+01   0.42971E+00   0.13602E+02   0.11959E-06   0.16297E-04   0.96774E+00   0.47376E+02  -0.82606E+00   0.14807E+01
   0.17020E-01   0.13410E-03   0.29637E+23   0.19708E-03   0.47380E+02  -0.77300E-01  -0.24895E+00   0.35128E+01   0.00000E+00   0.00000E+00   0.35128E+01   0.42977E+00   0.26006E+02   0.11990E-06   0.16339E-04   0.98524E+00   0.47381E+02  -0.93477E-01   0.14373E+01
   0.17063E-01   0.30378E-03   0.30379E+23   0.20202E-03   0.47599E+02  -0.28785E+00  -0.46335E+00   0.35294E+01   0.00000E+00   0.00000E+00   0.35294E+01   0.43075E+00   0.13525E+02   0.11964E-06   0.16343E-04   0.96480E+00   0.47602E+02  -0.34649E+00   0.14803E+01
   0.17364E-01   0.21839E-03   0.30166E+23   0.20060E-03   0.48511E+02  -0.58550E+00  -0.76402E+00   0.35002E+01   0.00000E+00   0.00000E+00   0.35002E+01   0.44089E+00   0.26754E+02   0.12045E-06   0.16385E-04   0.96852E+00   0.48520E+02  -0.69150E+00   0.14577E+01
   0.17493E-01   0.32020E-03   0.30541E+23   0.20310E-03   0.49380E+02  -0.52799E+00   0.12250E+00   0.34976E+01   0.00000E+00   0.00000E+00   0.34976E+01   0.44889E+00   0.40690E+02   0.11974E-06   0.16282E-04   0.96759E+00   0.49382E+02  -0.61261E+00   0.14747E+01
   0.17020E-01   0.21839E-03   0.30217E+23   0.20094E-03   0.47665E+02  -0.51816E+00   0.19161E+00   0.35160E+01   0.00000E+00   0.00000E+00   0.35160E+01   0.43217E+00   0.26791E+02   0.11996E-06   0.16355E-04   0.96858E+00   0.47669E+02  -0.62283E+00   0.14668E+01
   0.17063E-01   0.57471E-04   0.28964E+23   0.19261E-03   0.46670E+02   0.40262E+00  -0.55409E+00   0.34713E+01   0.00000E+00   0.00000E+00   0.34713E+01   0.42588E+00   0.34309E+02   0.10395E-06   0.14083E-04   0.11999E+01   0.46675E+02   0.49428E+00   0.13881E+01
   0.17149E-01   0.21839E-03   0.30384E+23   0.20206E-03   0.48115E+02  -0.53866E+00  -0.36497E+00   0.35124E+01   0.00000E+00   0.00000E+00   0.35124E+01   0.43649E+00   0.13470E+02   0.11986E-06   0.16333E-04   0.96684E+00   0.48120E+02  -0.64141E+00   0.14734E+01
   0.17794E-01   0.21839E-03   0.29830E+23   0.19837E-03   0.51036E+02  -0.36883E+00   0.47070E+00   0.34943E+01   0.00000E+00   0.00000E+00   0.34943E+01   0.46417E+00   0.26468E+02   0.12219E-06   0.16608E-04   0.95876E+00   0.51040E+02  -0.41406E+00   0.14391E+01
   0.17880E-01   0.35201E-03   0.30539E+23   0.20308E-03   0.50770E+02  -0.24253E+00  -0.88880E-02   0.34771E+01   0.00000E+00   0.00000E+00   0.34771E+01   0.46287E+00   0.54382E+02   0.12030E-06   0.16310E-04   0.96586E+00   0.50770E+02  -0.27370E+00   0.14660E+01
   0.17923E-01   0.13410E-03   0.29437E+23   0.19575E-03   0.50867E+02   0.30569E-01   0.71697E+00   0.34518E+01   0.00000E+00   0.00000E+00   0.34518E+01   0.46549E+00   0.12915E+02   0.12224E-06   0.16513E-04   0.97501E+00   0.50872E+02   0.34432E-01   0.14028E+01
   0.17622E-01   0.38953E-03   0.30601E+23   0.20350E-03   0.49574E+02  -0.54906E+00  -0.88439E+00   0.34925E+01   0.00000E+00   0.00000E+00   0.34925E+01   0.45106E+00   0.27317E+02   0.12011E-06   0.16321E-04   0.96498E+00   0.49585E+02  -0.63456E+00   0.14755E+01
   0.17665E-01   0.47544E-03   0.30996E+23   0.20612E-03   0.50236E+02  -0.10217E+01   0.85940E+00   0.34673E+01   0.00000E+00   0.00000E+00   0.34673E+01   0.45880E+00   0.13856E+02   0.11933E-06   0.16157E-04   0.96581E+00   0.50254E+02  -0.11651E+01   0.14838E+01
   0.17579E-01   0.13410E-03   0.29629E+23   0.19704E-03   0.49241E+02  -0.44065E+00   0.54980E+00   0.34706E+01   0.00000E+00   0.00000E+00   0.34706E+01   0.44939E+00   0.39028E+02   0.12083E-06   0.16367E-04   0.98258E+00   0.49246E+02  -0.51272E+00   0.14197E+01
   0.17579E-01   0.30378E-03   0.30325E+23   0.20166E-03   0.49886E+02  -0.39478E+00   0.51738E+00   0.34921E+01   0.00000E+00   0.00000E+00   0.34921E+01   0.45386E+00   0.13514E+02   0.12110E-06   0.16455E-04   0.95767E+00   0.49890E+02  -0.45341E+00   0.14620E+01
   0.17751E-01   0.38953E-03   0.30525E+23   0.20299E-03   0.50236E+02  -0.69374E+00  -0.11379E+00   0.34759E+01   0.00000E+00   0.00000E+00   0.34759E+01   0.45811E+00   0.13624E+02   0.12025E-06   0.16301E-04   0.96396E+00   0.50241E+02  -0.79119E+00   0.14648E+01
   0.17708E-01   0.30378E-03   0.30182E+23   0.20071E-03   0.50680E+02  -0.81827E+00   0.21888E+00   0.34755E+01   0.00000E+00   0.00000E+00   0.34755E+01   0.46221E+00   0.26882E+02   0.12112E-06   0.16418E-04   0.96320E+00   0.50687E+02  -0.92500E+00   0.14482E+01
   0.17536E-01   0.47544E-03   0.31025E+23   0.20632E-03   0.49369E+02  -0.42629E+00   0.14911E+00   0.34903E+01   0.00000E+00   0.00000E+00   0.34903E+01   0.44925E+00   0.27734E+02   0.11831E-06   0.16071E-04   0.97051E+00   0.49371E+02  -0.49473E+00   0.14950E+01
   0.17966E-01   0.21839E-03   0.29721E+23   0.19765E-03   0.51331E+02  -0.18962E+00   0.39567E+00   0.34850E+01   0.00000E+00   0.00000E+00   0.34850E+01   0.46746E+00   0.26370E+02   0.12299E-06   0.16695E-04   0.95581E+00   0.51333E+02  -0.21166E+00   0.14300E+01
   0.17579E-01   0.57471E-04   0.28954E+23   0.19254E-03   0.49362E+02  -0.21762E+00   0.65473E+00   0.34305E+01   0.00000E+00   0.00000E+00   0.34305E+01   0.45311E+00   0.34296E+02   0.10442E-06   0.14062E-04   0.11988E+01   0.49367E+02  -0.25260E+00   0.13713E+01
   0.17794E-01   0.13410E-03   0.29437E+23   0.19575E-03   0.50827E+02  -0.37389E+00   0.10235E+01   0.34672E+01   0.00000E+00   0.00000E+00   0.34672E+01   0.46415E+00   0.25821E+02   0.12168E-06   0.16474E-04   0.97772E+00   0.50839E+02  -0.42147E+00   0.14091E+01
   0.18052E-01   0.57471E-04   0.28908E+23   0.19224E-03   0.49914E+02   0.11651E+00  -0.85971E-01   0.34098E+01   0.00000E+00   0.00000E+00   0.34098E+01   0.45953E+00   0.22807E+02   0.10509E-06   0.14110E-04   0.11975E+01   0.49914E+02   0.13374E+00   0.13608E+01
   0.17837E-01   0.47544E-03   0.31119E+23   0.20694E-03   0.50273E+02  -0.79779E+00   0.70460E+00   0.34503E+01   0.00000E+00   0.00000E+00   0.34503E+01   0.46021E+00   0.41731E+02   0.11895E-06   0.16065E-04   0.97127E+00   0.50284E+02  -0.90916E+00   0.14823E+01
   0.18009E-01   0.47544E-03   0.30854E+23   0.20518E-03   0.51192E+02  -0.68136E+00   0.81457E+00   0.34496E+01   0.00000E+00   0.00000E+00   0.34496E+01   0.46867E+00   0.13793E+02   0.12028E-06   0.16244E-04   0.96289E+00   0.51203E+02  -0.76255E+00   0.14694E+01
   0.17622E-01   0.21839E-03   0.30075E+23   0.20000E-03   0.50303E+02  -0.45926E+00  -0.21554E+00   0.34727E+01   0.00000E+00   0.00000E+00   0.34727E+01   0.45892E+00   0.26667E+02   0.12128E-06   0.16433E-04   0.96686E+00   0.50306E+02  -0.52309E+00   0.14419E+01
   0.17837E-01   0.57471E-04   0.28734E+23   0.19108E-03   0.50938E+02   0.20122E+00   0.74197E+00   0.34229E+01   0.00000E+00   0.00000E+00   0.34229E+01   0.46811E+00   0.34042E+02   0.10529E-06   0.14164E-04   0.11951E+01   0.50944E+02   0.22634E+00   0.13579E+01
   0.18352E-01   0.26820E-03   0.30015E+23   0.19960E-03   0.53067E+02  -0.29381E+00   0.36193E+00   0.34213E+01   0.00000E+00   0.00000E+00   0.34213E+01   0.48775E+00   0.66631E+02   0.12292E-06   0.16531E-04   0.95861E+00   0.53069E+02  -0.31723E+00   0.14177E+01
   0.18138E-01   0.21839E-03   0.29801E+23   0.19817E-03   0.52083E+02  -0.40097E+00   0.33989E+00   0.34542E+01   0.00000E+00   0.00000E+00   0.34542E+01   0.47643E+00   0.26447E+02   0.12268E-06   0.16579E-04   0.96319E+00   0.52085E+02  -0.44109E+00   0.14211E+01
   0.18438E-01   0.38953E-03   0.30198E+23   0.20082E-03   0.52754E+02   0.29945E-01  -0.10001E+00   0.34403E+01   0.00000E+00   0.00000E+00   0.34403E+01   0.48352E+00   0.13481E+02   0.12227E-06   0.16490E-04   0.95917E+00   0.52754E+02   0.32523E-01   0.14343E+01